 Entering Gaussian System, Link 0=g09
 Input=1--PXZ-BZN-PXB--b3lyp-td-PCM.com
 Output=1--PXZ-BZN-PXB--b3lyp-td-PCM.log
 Initial command:
 /public/software/g09D01/g09/l1.exe "/tmp/Gau-14532.inp" -scrdir="/tmp/"
 Entering Link 1 = /public/software/g09D01/g09/l1.exe PID=     14533.
  
 Copyright (c) 1988,1990,1992,1993,1995,1998,2003,2009,2013,
            Gaussian, Inc.  All Rights Reserved.
  
 This is part of the Gaussian(R) 09 program.  It is based on
 the Gaussian(R) 03 system (copyright 2003, Gaussian, Inc.),
 the Gaussian(R) 98 system (copyright 1998, Gaussian, Inc.),
 the Gaussian(R) 94 system (copyright 1995, Gaussian, Inc.),
 the Gaussian 92(TM) system (copyright 1992, Gaussian, Inc.),
 the Gaussian 90(TM) system (copyright 1990, Gaussian, Inc.),
 the Gaussian 88(TM) system (copyright 1988, Gaussian, Inc.),
 the Gaussian 86(TM) system (copyright 1986, Carnegie Mellon
 University), and the Gaussian 82(TM) system (copyright 1983,
 Carnegie Mellon University). Gaussian is a federally registered
 trademark of Gaussian, Inc.
  
 This software contains proprietary and confidential information,
 including trade secrets, belonging to Gaussian, Inc.
  
 This software is provided under written license and may be
 used, copied, transmitted, or stored only in accord with that
 written license.
  
 The following legend is applicable only to US Government
 contracts under FAR:
  
                    RESTRICTED RIGHTS LEGEND
  
 Use, reproduction and disclosure by the US Government is
 subject to restrictions as set forth in subparagraphs (a)
 and (c) of the Commercial Computer Software - Restricted
 Rights clause in FAR 52.227-19.
  
 Gaussian, Inc.
 340 Quinnipiac St., Bldg. 40, Wallingford CT 06492
  
  
 ---------------------------------------------------------------
 Warning -- This program may not be used in any manner that
 competes with the business of Gaussian, Inc. or will provide
 assistance to any competitor of Gaussian, Inc.  The licensee
 of this program is prohibited from giving any competitor of
 Gaussian, Inc. access to this program.  By using this program,
 the user acknowledges that Gaussian, Inc. is engaged in the
 business of creating and licensing software in the field of
 computational chemistry and represents and warrants to the
 licensee that it is not a competitor of Gaussian, Inc. and that
 it will not use this program in any manner prohibited above.
 ---------------------------------------------------------------
  

 Cite this work as:
 Gaussian 09, Revision D.01,
 M. J. Frisch, G. W. Trucks, H. B. Schlegel, G. E. Scuseria, 
 M. A. Robb, J. R. Cheeseman, G. Scalmani, V. Barone, B. Mennucci, 
 G. A. Petersson, H. Nakatsuji, M. Caricato, X. Li, H. P. Hratchian, 
 A. F. Izmaylov, J. Bloino, G. Zheng, J. L. Sonnenberg, M. Hada, 
 M. Ehara, K. Toyota, R. Fukuda, J. Hasegawa, M. Ishida, T. Nakajima, 
 Y. Honda, O. Kitao, H. Nakai, T. Vreven, J. A. Montgomery, Jr., 
 J. E. Peralta, F. Ogliaro, M. Bearpark, J. J. Heyd, E. Brothers, 
 K. N. Kudin, V. N. Staroverov, T. Keith, R. Kobayashi, J. Normand, 
 K. Raghavachari, A. Rendell, J. C. Burant, S. S. Iyengar, J. Tomasi, 
 M. Cossi, N. Rega, J. M. Millam, M. Klene, J. E. Knox, J. B. Cross, 
 V. Bakken, C. Adamo, J. Jaramillo, R. Gomperts, R. E. Stratmann, 
 O. Yazyev, A. J. Austin, R. Cammi, C. Pomelli, J. W. Ochterski, 
 R. L. Martin, K. Morokuma, V. G. Zakrzewski, G. A. Voth, 
 P. Salvador, J. J. Dannenberg, S. Dapprich, A. D. Daniels, 
 O. Farkas, J. B. Foresman, J. V. Ortiz, J. Cioslowski, 
 and D. J. Fox, Gaussian, Inc., Wallingford CT, 2013.
 
 ******************************************
 Gaussian 09:  EM64L-G09RevD.01 24-Apr-2013
                 8-Sep-2016 
 ******************************************
 %nproc=8
 Will use up to    8 processors via shared memory.
 %mem=12gb
 %chk=1--PXZ-BZN-PXB--b3lyp-td-PCM.chk
 ----------------------------------------------------------------------
 # TD(Nstate=25,Root=1) B3LYP/6-31+G(d,p) SCF=(Maxcyc=500) Int=Ultrafin
 e geom=check guess=read EmpiricalDispersion=GD3 iop(9/40=2) SCRF=(Solv
 ent=Toluene) Density=(all)
 ----------------------------------------------------------------------
 1/29=2,30=1,38=1/1;
 2/12=2,40=1/2;
 3/5=1,6=6,7=111,11=9,14=-4,16=1,25=1,30=1,70=2201,71=1,72=13,74=-5,75=-5,116=-2,124=31/1,2,8,3;
 4/5=1/1;
 5/5=2,7=500,38=6,53=13/2;
 8/6=1,10=2,107=1,108=25/1;
 9/8=1,15=1,30=10,40=2,41=25,42=1,70=2/14;
 10/5=4,13=10/2;
 6/7=2,8=2,9=2,10=2,22=-2/1;
 99/5=1,9=1/99;
 -----------------
 ****TD b3lyp, GD3
 -----------------
 Structure from the checkpoint file:  "1--PXZ-BZN-PXB--b3lyp-td-PCM.chk"
 Charge =  0 Multiplicity = 1
 Redundant internal coordinates found in file.
 C,0,-3.449593708,1.1694966229,3.7795241474
 C,0,-2.3315053747,0.7900107875,3.0338313721
 C,0,-1.1499081298,0.39131975,3.6649108823
 C,0,-1.123761334,0.3828763014,5.0706076952
 C,0,-2.2321221298,0.7588970801,5.8104700589
 C,0,-3.4064536917,1.1564299855,5.1672379802
 C,0,1.123761334,-0.3828763014,5.0706076952
 C,0,1.1499081298,-0.39131975,3.6649108823
 C,0,2.3315053747,-0.7900107875,3.0338313721
 H,0,2.3741432395,-0.8035687161,1.9530221254
 C,0,3.449593708,-1.1694966229,3.7795241474
 C,0,3.4064536917,-1.1564299855,5.1672379802
 C,0,2.2321221298,-0.7588970801,5.8104700589
 H,0,-4.3512257736,1.4741729622,3.2612846493
 H,0,-2.3741432395,0.8035687161,1.9530221254
 H,0,-2.1569302881,0.7337099156,6.8909656692
 H,0,-4.2695811515,1.4493961734,5.7523629743
 H,0,4.3512257736,-1.4741729622,3.2612846493
 H,0,4.2695811515,-1.4493961734,5.7523629743
 H,0,2.1569302881,-0.7337099156,6.8909656692
 O,0,0.,0.,5.7773550472
 N,0,0.,0.,2.9549644354
 C,0,0.,0.,1.5206428626
 C,0,-0.3434580028,-1.1557397017,0.8196243159
 C,0,0.3434580028,1.1557397017,0.8196243159
 C,0,-0.3518875526,-1.1475623758,-0.5729159865
 H,0,-0.6070010388,-2.0521385178,1.369336172
 C,0,0.3518875526,1.1475623758,-0.5729159865
 H,0,0.6070010388,2.0521385178,1.369336172
 C,0,0.,0.,-1.3070313317
 H,0,-0.6264349079,-2.0569248926,-1.0970432718
 H,0,0.6264349079,2.0569248926,-1.0970432718
 B,0,0.,0.,-2.8801383314
 C,0,-1.2397201012,-0.3784339473,-3.7124001728
 C,0,1.2397201012,0.3784339473,-3.7124001728
 C,0,-2.5018775035,-0.7308811236,-3.1761570182
 C,0,-1.1446190355,-0.3480159688,-5.1174110205
 C,0,1.1446190355,0.3480159688,-5.1174110205
 C,0,2.5018775035,0.7308811236,-3.1761570182
 C,0,-3.5791765219,-1.0484310848,-3.9825340006
 H,0,-2.6194851922,-0.7431228424,-2.098922877
 C,0,-2.2238998278,-0.666939048,-5.9501682168
 O,0,0.,0.,-5.7753643465
 C,0,2.2238998278,0.666939048,-5.9501682168
 H,0,2.6194851922,0.7431228424,-2.098922877
 C,0,3.5791765219,1.0484310848,-3.9825340006
 C,0,-3.4335292545,-1.0185192469,-5.3781483255
 H,0,-4.5335180541,-1.3143930963,-3.5434492341
 H,0,-2.0900461089,-0.6287822572,-7.0241952424
 C,0,3.4335292545,1.0185192469,-5.3781483255
 H,0,2.0900461089,0.6287822572,-7.0241952424
 H,0,4.5335180541,1.3143930963,-3.5434492341
 H,0,-4.2742322494,-1.2659291021,-6.0164896647
 H,0,4.2742322494,1.2659291021,-6.0164896647
 Recover connectivity data from disk.
 Stoichiometry    C30H20BNO2
 Framework group  C2[C2(OBCCNO),X(C28H20)]
 Deg. of freedom    76
 Full point group                 C2      NOp   2
 Largest Abelian subgroup         C2      NOp   2
 Largest concise Abelian subgroup C2      NOp   2
                         Standard orientation:                         
 ---------------------------------------------------------------------
 Center     Atomic      Atomic             Coordinates (Angstroms)
 Number     Number       Type             X           Y           Z
 ---------------------------------------------------------------------
      1          6           0       -3.449317    1.170311    3.779730
      2          6           0       -2.331319    0.790561    3.034037
      3          6           0       -1.149816    0.391591    3.665117
      4          6           0       -1.123671    0.383142    5.070814
      5          6           0       -2.231943    0.759424    5.810676
      6          6           0       -3.406180    1.157235    5.167444
      7          6           0        1.123671   -0.383142    5.070814
      8          6           0        1.149816   -0.391591    3.665117
      9          6           0        2.331319   -0.790561    3.034037
     10          1           0        2.373953   -0.804129    1.953228
     11          6           0        3.449317   -1.170311    3.779730
     12          6           0        3.406180   -1.157235    5.167444
     13          6           0        2.231943   -0.759424    5.810676
     14          1           0       -4.350877    1.475201    3.261491
     15          1           0       -2.373953    0.804129    1.953228
     16          1           0       -2.156757    0.734219    6.891172
     17          1           0       -4.269239    1.450405    5.752569
     18          1           0        4.350877   -1.475201    3.261491
     19          1           0        4.269239   -1.450405    5.752569
     20          1           0        2.156757   -0.734219    6.891172
     21          8           0        0.000000    0.000000    5.777561
     22          7           0        0.000000    0.000000    2.955170
     23          6           0        0.000000    0.000000    1.520849
     24          6           0       -0.343731   -1.155659    0.819830
     25          6           0        0.343731    1.155659    0.819830
     26          6           0       -0.352159   -1.147479   -0.572710
     27          1           0       -0.607486   -2.051995    1.369542
     28          6           0        0.352159    1.147479   -0.572710
     29          1           0        0.607486    2.051995    1.369542
     30          6           0        0.000000    0.000000   -1.306825
     31          1           0       -0.626921   -2.056777   -1.096837
     32          1           0        0.626921    2.056777   -1.096837
     33          5           0        0.000000    0.000000   -2.879932
     34          6           0       -1.239809   -0.378141   -3.712194
     35          6           0        1.239809    0.378141   -3.712194
     36          6           0       -2.502050   -0.730290   -3.175951
     37          6           0       -1.144701   -0.347746   -5.117205
     38          6           0        1.144701    0.347746   -5.117205
     39          6           0        2.502050    0.730290   -3.175951
     40          6           0       -3.579424   -1.047586   -3.982328
     41          1           0       -2.619661   -0.742504   -2.098717
     42          6           0       -2.224057   -0.666414   -5.949962
     43          8           0        0.000000    0.000000   -5.775158
     44          6           0        2.224057    0.666414   -5.949962
     45          1           0        2.619661    0.742504   -2.098717
     46          6           0        3.579424    1.047586   -3.982328
     47          6           0       -3.433770   -1.017708   -5.377942
     48          1           0       -4.533828   -1.313322   -3.543243
     49          1           0       -2.090195   -0.628289   -7.023989
     50          6           0        3.433770    1.017708   -5.377942
     51          1           0        2.090195    0.628289   -7.023989
     52          1           0        4.533828    1.313322   -3.543243
     53          1           0       -4.274531   -1.264920   -6.016284
     54          1           0        4.274531    1.264920   -6.016284
 ---------------------------------------------------------------------
 Rotational constants (GHZ):      0.2206877      0.0622382      0.0513313
 Standard basis: 6-31+G(d,p) (6D, 7F)
 There are   382 symmetry adapted cartesian basis functions of A   symmetry.
 There are   364 symmetry adapted cartesian basis functions of B   symmetry.
 There are   382 symmetry adapted basis functions of A   symmetry.
 There are   364 symmetry adapted basis functions of B   symmetry.
   746 basis functions,  1228 primitive gaussians,   746 cartesian basis functions
   114 alpha electrons      114 beta electrons
       nuclear repulsion energy      3052.5825507926 Hartrees.
 NAtoms=   54 NActive=   54 NUniq=   30 SFac= 3.24D+00 NAtFMM=   60 NAOKFM=F Big=F
 Integral buffers will be    131072 words long.
 Regular integral format.
 Two-electron integral symmetry is turned on.
 Nuclear repulsion after empirical dispersion term =     3052.5272518218 Hartrees.
 ------------------------------------------------------------------------------
 Polarizable Continuum Model (PCM)
 =================================
 Model                : PCM (using non-symmetric T matrix).
 Atomic radii         : UFF (Universal Force Field).
 Polarization charges : Total charges.
 Charge compensation  : None.
 Solution method      : On-the-fly selection.
 Cavity type          : Scaled VdW (van der Waals Surface) (Alpha=1.100).
 Cavity algorithm     : GePol (No added spheres)
                        Default sphere list used, NSphG=   54.
                        Lebedev-Laikov grids with approx.  5.0 points / Ang**2.
                        Smoothing algorithm: Karplus/York (Gamma=1.0000).
                        Polarization charges: spherical gaussians, with
                                              point-specific exponents (IZeta= 3).
                        Self-potential: point-specific (ISelfS= 7).
                        Self-field    : sphere-specific E.n sum rule (ISelfD= 2).
 1st derivatives      : Analytical E(r).r(x)/FMM algorithm (CHGder, D1EAlg=3).
                        Cavity 1st derivative terms included.
 Solvent              : Toluene, Eps=   2.374100 Eps(inf)=   2.238315
 ------------------------------------------------------------------------------
 One-electron integrals computed using PRISM.
 NBasis=   746 RedAO= T EigKep=  1.13D-06  NBF=   382   364
 NBsUse=   736 1.00D-06 EigRej=  7.18D-07 NBFU=   377   359
 Initial guess from the checkpoint file:  "1--PXZ-BZN-PXB--b3lyp-td-PCM.chk"
 B after Tr=     0.000000    0.000000    0.000000
         Rot=    1.000000    0.000000    0.000000    0.000000 Ang=   0.00 deg.
 Initial guess orbital symmetries:
       Occupied  (A) (A) (A) (B) (A) (B) (A) (B) (A) (A) (B) (A)
                 (B) (A) (B) (A) (A) (B) (B) (A) (B) (A) (B) (A)
                 (B) (A) (B) (A) (A) (B) (A) (B) (A) (A) (A) (A)
                 (A) (B) (B) (A) (A) (A) (B) (A) (B) (B) (A) (B)
                 (B) (A) (A) (A) (B) (A) (B) (A) (B) (B) (B) (A)
                 (A) (B) (A) (B) (A) (A) (A) (B) (A) (B) (B) (A)
                 (A) (B) (B) (B) (A) (B) (A) (B) (B) (B) (A) (B)
                 (A) (B) (A) (A) (A) (A) (A) (B) (A) (B) (B) (B)
                 (A) (B) (B) (B) (A) (B) (B) (A) (B) (A) (A) (A)
                 (A) (B) (A) (B) (B) (B)
       Virtual   (B) (A) (B) (A) (A) (A) (B) (A) (B) (B) (A) (A)
                 (B) (B) (A) (B) (A) (B) (A) (B) (B) (A) (A) (A)
                 (B) (A) (A) (B) (B) (B) (B) (A) (A) (A) (A) (B)
                 (A) (B) (B) (A) (A) (B) (A) (B) (A) (A) (B) (B)
                 (B) (A) (A) (B) (B) (A) (B) (A) (B) (A) (B) (B)
                 (A) (B) (A) (A) (B) (B) (B) (B) (A) (A) (A) (B)
                 (B) (A) (B) (A) (A) (A) (B) (A) (B) (A) (B) (B)
                 (A) (A) (B) (A) (B) (A) (B) (A) (A) (B) (B) (B)
                 (B) (B) (A) (A) (B) (B) (A) (A) (B) (A) (A) (B)
                 (A) (A) (A) (B) (B) (A) (A) (B) (A) (B) (B) (A)
                 (B) (B) (A) (B) (A) (B) (B) (A) (A) (B) (A) (B)
                 (A) (B) (B) (B) (A) (B) (A) (A) (A) (B) (B) (A)
                 (B) (A) (B) (B) (A) (A) (A) (A) (B) (B) (A) (A)
                 (B) (B) (B) (A) (A) (A) (B) (B) (A) (A) (B) (A)
                 (B) (A) (B) (A) (A) (B) (A) (B) (B) (A) (A) (B)
                 (B) (B) (A) (B) (A) (B) (A) (B) (A) (A) (B) (B)
                 (B) (A) (B) (B) (A) (B) (A) (A) (B) (A) (A) (B)
                 (B) (A) (A) (B) (B) (A) (A) (B) (B) (A) (B) (A)
                 (B) (B) (B) (A) (A) (A) (B) (B) (A) (A) (A) (A)
                 (B) (A) (A) (B) (A) (B) (B) (A) (B) (A) (A) (B)
                 (B) (B) (A) (B) (A) (A) (B) (A) (A) (A) (B) (A)
                 (B) (B) (A) (B) (A) (A) (A) (B) (B) (B) (B) (B)
                 (A) (A) (B) (A) (B) (B) (A) (A) (B) (B) (B) (A)
                 (B) (A) (A) (B) (B) (A) (B) (A) (B) (A) (A) (B)
                 (A) (A) (B) (B) (A) (B) (A) (B) (A) (B) (A) (B)
                 (A) (B) (A) (B) (A) (B) (A) (A) (A) (B) (A) (A)
                 (B) (A) (B) (B) (A) (B) (A) (B) (A) (B) (B) (A)
                 (A) (B) (A) (A) (B) (B) (A) (B) (B) (A) (A) (B)
                 (A) (B) (B) (A) (B) (A) (B) (B) (B) (A) (A) (A)
                 (B) (B) (A) (B) (A) (A) (B) (A) (B) (A) (A) (B)
                 (B) (A) (B) (B) (A) (B) (B) (A) (B) (A) (A) (B)
                 (A) (B) (A) (B) (A) (B) (A) (A) (A) (B) (A) (A)
                 (B) (A) (B) (B) (B) (A) (B) (A) (A) (A) (B) (A)
                 (B) (B) (B) (A) (B) (A) (B) (B) (A) (B) (A) (B)
                 (A) (A) (B) (A) (B) (B) (A) (B) (A) (A) (B) (A)
                 (B) (A) (B) (B) (A) (B) (A) (A) (B) (A) (B) (B)
                 (A) (B) (A) (A) (B) (A) (B) (A) (B) (A) (B) (A)
                 (B) (B) (A) (A) (B) (B) (A) (B) (A) (B) (A) (B)
                 (A) (A) (B) (A) (B) (A) (A) (B) (A) (B) (A) (B)
                 (A) (B) (A) (B) (A) (A) (B) (B) (B) (A) (B) (A)
                 (B) (A) (B) (A) (B) (A) (A) (A) (B) (B) (B) (A)
                 (A) (B) (A) (B) (B) (A) (B) (A) (A) (B) (B) (B)
                 (B) (A) (B) (A) (B) (B) (B) (A) (A) (A) (B) (B)
                 (A) (A) (B) (A) (A) (B) (A) (B) (A) (A) (A) (B)
                 (B) (A) (B) (A) (B) (A) (B) (A) (B) (B) (A) (A)
                 (A) (B) (A) (B) (A) (A) (B) (A) (B) (B) (A) (B)
                 (A) (A) (B) (B) (A) (B) (A) (B) (A) (B) (A) (B)
                 (A) (A) (A) (B) (A) (B) (B) (B) (A) (B) (B) (A)
                 (B) (B) (A) (B) (A) (A) (B) (B) (A) (A) (A) (B)
                 (B) (A) (A) (B) (A) (B) (A) (B) (A) (B) (B) (A)
                 (A) (B) (A) (A) (B) (B) (B) (A) (A) (B) (A) (A)
                 (B) (A) (A) (A) (A) (A) (A) (A) (A) (A)
 Requested convergence on RMS density matrix=1.00D-08 within 500 cycles.
 Requested convergence on MAX density matrix=1.00D-06.
 Requested convergence on             energy=1.00D-06.
 No special actions if energy rises.
 Inv3:  Mode=1 IEnd=    50086188.
 Iteration    1 A*A^-1 deviation from unit magnitude is 8.55D-15 for   3763.
 Iteration    1 A*A^-1 deviation from orthogonality  is 8.17D-15 for   2750   1220.
 Iteration    1 A^-1*A deviation from unit magnitude is 8.77D-15 for   3913.
 Iteration    1 A^-1*A deviation from orthogonality  is 5.33D-15 for   3669   2502.
 Error on total polarization charges =  0.01710
 SCF Done:  E(RB3LYP) =  -1385.46140864     A.U. after   13 cycles
            NFock= 13  Conv=0.53D-08     -V/T= 2.0093
 DoSCS=F DFT=T ScalE2(SS,OS)=  1.000000  1.000000
 ExpMin= 3.15D-02 ExpMax= 5.48D+03 ExpMxC= 8.25D+02 IAcc=3 IRadAn=         5 AccDes= 0.00D+00
 HarFok:  IExCor=  205 AccDes= 0.00D+00 IRadAn=         5 IDoV=-2 UseB2=F ITyADJ=14
 ICtDFT= 12500011 ScaDFX=  1.000000  1.000000  1.000000  1.000000
 Range of M.O.s used for correlation:    35   736
 NBasis=   746 NAE=   114 NBE=   114 NFC=    34 NFV=     0
 NROrb=    702 NOA=    80 NOB=    80 NVA=   622 NVB=   622

 **** Warning!!: The largest alpha MO coefficient is  0.15198539D+03

 Would need an additional         76026100000 words for in-memory AO integral storage.
 NEqPCM:  Using equilibrium solvation (IEInf=0, Eps=   2.3741, EpsInf=   2.2383)
 Orbital symmetries:
       Occupied  (A) (A) (A) (B) (A) (B) (A) (B) (A) (A) (B) (A)
                 (B) (A) (A) (B) (B) (A) (A) (B) (B) (A) (B) (A)
                 (B) (A) (A) (B) (B) (A) (A) (B) (A) (A) (A) (A)
                 (A) (B) (B) (A) (A) (A) (B) (A) (B) (B) (A) (B)
                 (B) (A) (A) (A) (B) (A) (B) (A) (B) (B) (B) (A)
                 (A) (B) (A) (B) (A) (A) (A) (B) (A) (B) (B) (A)
                 (A) (B) (B) (B) (A) (B) (A) (B) (B) (A) (B) (B)
                 (A) (B) (A) (A) (A) (A) (A) (B) (A) (B) (B) (B)
                 (A) (B) (B) (B) (A) (B) (B) (A) (B) (A) (A) (A)
                 (A) (B) (A) (B) (B) (B)
       Virtual   (B) (A) (B) (A) (A) (A) (B) (A) (B) (A) (B) (A)
                 (B) (A) (A) (B) (A) (B) (B) (A) (B) (B) (A) (A)
                 (B) (A) (B) (B) (B) (A) (A) (B) (A) (B) (A) (B)
                 (A) (B) (B) (B) (A) (A) (B) (A) (A) (B) (B) (A)
                 (A) (B) (A) (A) (B) (B) (A) (A) (A) (B) (A) (B)
                 (A) (A) (B) (A) (B) (B) (A) (B) (B) (B) (A) (B)
                 (A) (B) (A) (A) (B) (B) (A) (B) (A) (A) (B) (A)
                 (A) (B) (B) (A) (A) (B) (A) (B) (A) (B) (A) (B)
                 (A) (B) (A) (B) (A) (B) (A) (B) (B) (A) (B) (A)
                 (A) (B) (A) (B) (A) (B) (A) (B) (A) (A) (B) (A)
                 (B) (A) (A) (B) (B) (A) (B) (A) (A) (B) (B) (B)
                 (A) (B) (A) (A) (B) (B) (A) (B) (B) (A) (B) (A)
                 (B) (B) (A) (B) (A) (B) (A) (B) (B) (A) (A) (B)
                 (A) (B) (A) (A) (B) (B) (A) (B) (A) (B) (A) (B)
                 (B) (B) (A) (B) (A) (A) (A) (A) (B) (B) (A) (B)
                 (B) (A) (A) (B) (B) (A) (B) (B) (A) (A) (B) (A)
                 (B) (A) (B) (A) (A) (B) (B) (A) (B) (A) (A) (A)
                 (B) (A) (B) (A) (B) (B) (B) (A) (B) (A) (B) (B)
                 (B) (A) (A) (A) (B) (A) (B) (A) (B) (A) (B) (A)
                 (B) (A) (A) (B) (A) (B) (B) (B) (A) (A) (B) (A)
                 (B) (A) (A) (A) (B) (A) (B) (A) (B) (B) (A) (A)
                 (A) (B) (A) (B) (B) (A) (B) (B) (A) (A) (B) (A)
                 (B) (B) (A) (A) (B) (A) (B) (A) (B) (A) (B) (B)
                 (A) (B) (B) (A) (A) (B) (B) (A) (A) (B) (B) (A)
                 (B) (B) (B) (A) (B) (A) (A) (B) (B) (A) (A) (B)
                 (B) (A) (A) (A) (B) (B) (A) (B) (A) (B) (A) (A)
                 (B) (A) (B) (B) (A) (B) (A) (A) (B) (A) (B) (B)
                 (A) (B) (B) (B) (A) (A) (B) (B) (B) (A) (A) (A)
                 (B) (A) (A) (B) (A) (B) (A) (B) (B) (A) (B) (A)
                 (A) (B) (A) (A) (A) (A) (B) (B) (A) (A) (A) (B)
                 (A) (A) (B) (B) (B) (B) (B) (A) (B) (B) (A) (A)
                 (B) (A) (B) (A) (B) (A) (B) (A) (B) (A) (B) (A)
                 (A) (A) (A) (B) (B) (A) (B) (A) (A) (B) (A) (B)
                 (A) (B) (A) (B) (A) (B) (B) (A) (B) (B) (B) (A)
                 (A) (A) (B) (B) (A) (A) (B) (B) (A) (A) (B) (B)
                 (A) (A) (B) (A) (B) (A) (A) (B) (A) (B) (A) (B)
                 (B) (A) (A) (B) (A) (B) (A) (B) (A) (A) (B) (B)
                 (A) (B) (B) (A) (B) (A) (A) (A) (B) (A) (B) (B)
                 (A) (A) (B) (A) (B) (A) (B) (A) (A) (B) (B) (B)
                 (B) (A) (B) (B) (A) (A) (B) (A) (B) (A) (A) (A)
                 (A) (B) (A) (B) (A) (B) (B) (B) (B) (A) (A) (B)
                 (B) (A) (B) (A) (A) (B) (A) (B) (A) (A) (B) (A)
                 (B) (B) (B) (A) (A) (A) (A) (B) (A) (B) (A) (B)
                 (B) (B) (A) (A) (B) (A) (A) (B) (B) (B) (A) (B)
                 (A) (B) (B) (A) (B) (A) (B) (A) (A) (B) (B) (A)
                 (A) (B) (A) (B) (A) (B) (A) (B) (A) (A) (B) (A)
                 (B) (B) (A) (A) (A) (A) (A) (B) (A) (A) (B) (A)
                 (B) (A) (B) (B) (B) (B) (B) (A) (A) (A) (B) (B)
                 (A) (A) (B) (B) (A) (B) (A) (A) (A) (A) (A) (B)
                 (B) (A) (A) (B) (B) (A) (B) (A) (A) (B) (A) (B)
                 (B) (A) (B) (B) (A) (B) (B) (A) (A) (B) (A) (B)
                 (A) (A) (A) (A) (B) (B) (A) (A) (A) (A)
   100 initial guesses have been made.
 Convergence on wavefunction:    0.000001000000000
 Iteration     1 Dimension   100 NMult     0 NNew    100
 CISAX will form   100 AO SS matrices at one time.
 New state      2 was old state      3
 New state      3 was old state      2
 New state      5 was old state      7
 New state      7 was old state      5
 New state      9 was old state     10
 New state     10 was old state     12
 New state     11 was old state      9
 New state     12 was old state     14
 New state     13 was old state     11
 New state     14 was old state     13
 New state     15 was old state     18
 New state     16 was old state     15
 New state     18 was old state     16
 New state     20 was old state     23
 New state     22 was old state     20
 New state     23 was old state     22
 New state     24 was old state     28
 New state     25 was old state     26
 Iteration     2 Dimension   150 NMult   100 NNew     50
 New state      2 was old state      3
 New state      3 was old state      2
 New state      5 was old state      7
 New state      6 was old state      5
 New state      7 was old state      6
 New state      8 was old state     11
 New state      9 was old state      8
 New state     10 was old state      9
 New state     11 was old state     12
 New state     12 was old state     10
 New state     13 was old state     14
 New state     14 was old state     13
 New state     15 was old state     16
 New state     16 was old state     15
 New state     17 was old state     22
 New state     18 was old state     17
 New state     19 was old state     18
 New state     20 was old state     19
 New state     21 was old state     20
 New state     22 was old state     21
 New state     24 was old state     25
 New state     25 was old state     24
 Iteration     3 Dimension   200 NMult   150 NNew     50
 New state     16 was old state     17
 New state     17 was old state     16
 Iteration     4 Dimension   250 NMult   200 NNew     50
 Iteration     5 Dimension   300 NMult   250 NNew     50
 Iteration     6 Dimension   350 NMult   300 NNew     50
 Iteration     7 Dimension   400 NMult   350 NNew     50
 No map to state     25
 Davidson failed to converge within maximum sub-space dimensions.
  Restart with updated initial guess:
 Iteration     1 Dimension    96 NMult   400 NNew     96
 Iteration     2 Dimension   146 NMult   496 NNew     50
 Iteration     3 Dimension   176 NMult   546 NNew     30
 Iteration     4 Dimension   188 NMult   576 NNew     12
 Iteration     5 Dimension   194 NMult   588 NNew      6
 Iteration     6 Dimension   198 NMult   594 NNew      4
 Iteration     7 Dimension   202 NMult   598 NNew      4
 Iteration     8 Dimension   206 NMult   602 NNew      4
 Iteration     9 Dimension   210 NMult   606 NNew      4
 Iteration    10 Dimension   214 NMult   610 NNew      4
 Iteration    11 Dimension   218 NMult   614 NNew      4
 Iteration    12 Dimension   220 NMult   618 NNew      2
 Iteration    13 Dimension   222 NMult   620 NNew      2
 Iteration    14 Dimension   224 NMult   622 NNew      2
 Iteration    15 Dimension   226 NMult   624 NNew      2
 Iteration    16 Dimension   228 NMult   626 NNew      2
 Iteration    17 Dimension   230 NMult   628 NNew      2
 Iteration    18 Dimension   232 NMult   630 NNew      2
 Iteration    19 Dimension   234 NMult   632 NNew      2
 Iteration    20 Dimension   236 NMult   634 NNew      2
 Iteration    21 Dimension   238 NMult   636 NNew      2
 ***********************************************************************
 Excited states from <AA,BB:AA,BB> singles matrix:
 ***********************************************************************
 
 Ground to excited state transition densities written to RWF  633
 Ground to excited state transition electric dipole moments (Au):
       state          X           Y           Z        Dip. S.      Osc.
         1         0.0000      0.0000      0.2212      0.0489      0.0029
         2         0.0575     -0.0320      0.0000      0.0043      0.0004
         3         0.0000      0.0000     -0.0872      0.0076      0.0006
         4        -0.9872      0.3320      0.0000      1.0848      0.0974
         5         0.0000      0.0000      1.3802      1.9050      0.1721
         6         0.4424     -0.1483      0.0000      0.2177      0.0208
         7         0.0000      0.0000     -0.0332      0.0011      0.0001
         8         0.0000      0.0000     -0.2523      0.0637      0.0063
         9         1.1074     -0.4063      0.0000      1.3914      0.1386
        10         0.2689     -0.1141      0.0000      0.0853      0.0088
        11         0.0000      0.0000      1.2347      1.5246      0.1600
        12         0.0305      0.0380      0.0000      0.0024      0.0003
        13         1.1337      0.4365      0.0000      1.4759      0.1586
        14         0.0000      0.0000      0.1765      0.0312      0.0034
        15        -0.9862     -0.1768      0.0000      1.0038      0.1095
        16        -0.1109     -0.0046      0.0000      0.0123      0.0014
        17         0.0221      0.0685      0.0000      0.0052      0.0006
        18         0.0000      0.0000      0.0668      0.0045      0.0005
        19        -0.0054      0.0023      0.0000      0.0000      0.0000
        20         0.0580     -0.0598      0.0000      0.0069      0.0008
        21         0.0887      0.2671      0.0000      0.0792      0.0094
        22         0.0000      0.0000     -0.0988      0.0098      0.0012
        23        -0.0285     -0.0695      0.0000      0.0056      0.0007
        24         0.0000      0.0000     -0.2170      0.0471      0.0058
        25        -0.3095     -0.7111      0.0000      0.6015      0.0744
 Ground to excited state transition velocity dipole moments (Au):
       state          X           Y           Z        Dip. S.      Osc.
         1         0.0000      0.0000     -0.0197      0.0004      0.0029
         2         0.0021      0.0011      0.0000      0.0000      0.0000
         3         0.0000      0.0000      0.0108      0.0001      0.0006
         4         0.1389     -0.0466      0.0000      0.0215      0.1063
         5         0.0000      0.0000     -0.1948      0.0379      0.1867
         6        -0.0651      0.0215      0.0000      0.0047      0.0218
         7         0.0000      0.0000      0.0042      0.0000      0.0001
         8         0.0000      0.0000      0.0358      0.0013      0.0057
         9        -0.1633      0.0600      0.0000      0.0303      0.1350
        10        -0.0394      0.0168      0.0000      0.0018      0.0079
        11         0.0000      0.0000     -0.1860      0.0346      0.1466
        12        -0.0060     -0.0078      0.0000      0.0001      0.0004
        13        -0.1777     -0.0694      0.0000      0.0364      0.1505
        14         0.0000      0.0000     -0.0283      0.0008      0.0033
        15         0.1518      0.0255      0.0000      0.0237      0.0965
        16         0.0253      0.0024      0.0000      0.0006      0.0025
        17        -0.0025     -0.0079      0.0000      0.0001      0.0003
        18         0.0000      0.0000     -0.0110      0.0001      0.0005
        19         0.0010      0.0002      0.0000      0.0000      0.0000
        20        -0.0102      0.0091      0.0000      0.0002      0.0007
        21        -0.0102     -0.0341      0.0000      0.0013      0.0048
        22         0.0000      0.0000      0.0173      0.0003      0.0011
        23         0.0048      0.0098      0.0000      0.0001      0.0004
        24         0.0000      0.0000      0.0379      0.0014      0.0052
        25         0.0556      0.1287      0.0000      0.0197      0.0707
 Ground to excited state transition magnetic dipole moments (Au):
       state          X           Y           Z
         1         0.0000      0.0000      0.0840
         2         0.6100      1.7517      0.0000
         3         0.0000      0.0000     -0.1850
         4        -0.0847     -0.2574      0.0000
         5         0.0000      0.0000      0.0286
         6        -0.1564     -0.6333      0.0000
         7         0.0000      0.0000     -0.0348
         8         0.0000      0.0000     -0.0038
         9        -0.5973     -1.8662      0.0000
        10        -0.1766     -0.4340      0.0000
        11         0.0000      0.0000      0.0921
        12         0.0349     -0.1552      0.0000
        13        -0.2604      1.0051      0.0000
        14         0.0000      0.0000     -0.0067
        15         0.2264     -0.8080      0.0000
        16         0.2323     -0.9576      0.0000
        17         0.0818      0.0029      0.0000
        18         0.0000      0.0000     -0.3325
        19        -0.0077     -0.0350      0.0000
        20        -0.0992      0.1453      0.0000
        21         0.3341     -0.1294      0.0000
        22         0.0000      0.0000     -0.2436
        23        -0.0853      0.0643      0.0000
        24         0.0000      0.0000     -0.0573
        25         0.0264     -3.1121      0.0000
 Ground to excited state transition velocity quadrupole moments (Au):
       state          XX          YY          ZZ          XY          XZ          YZ
         1        -0.0130     -0.0024     -0.0114      0.0257      0.0000      0.0000
         2         0.0000      0.0000      0.0000      0.0000     -0.2917      0.1046
         3         0.0410      0.0098      0.0435     -0.0379      0.0000      0.0000
         4         0.0000      0.0000      0.0000      0.0000      1.4625     -0.4842
         5         0.0818     -0.0591      2.0817      0.1036      0.0000      0.0000
         6         0.0000      0.0000      0.0000      0.0000     -0.5589      0.1918
         7        -0.0308      0.0080     -0.0283     -0.0165      0.0000      0.0000
         8         0.8761      0.0982     -0.2032     -0.3613      0.0000      0.0000
         9         0.0000      0.0000      0.0000      0.0000     -1.4269      0.4569
        10         0.0000      0.0000      0.0000      0.0000     -0.3324      0.1196
        11         0.5578     -0.0088      0.2472      0.2169      0.0000      0.0000
        12         0.0000      0.0000      0.0000      0.0000     -0.1121     -0.0187
        13         0.0000      0.0000      0.0000      0.0000      1.6445      0.4834
        14         0.0081      0.0018     -0.0393      0.0402      0.0000      0.0000
        15         0.0000      0.0000      0.0000      0.0000     -1.6509     -0.4795
        16         0.0000      0.0000      0.0000      0.0000      0.1732      0.0694
        17         0.0000      0.0000      0.0000      0.0000     -0.0407     -0.1385
        18        -0.1855      0.1354     -0.0175     -0.1146      0.0000      0.0000
        19         0.0000      0.0000      0.0000      0.0000      0.0030     -0.0049
        20         0.0000      0.0000      0.0000      0.0000      0.0981      0.0230
        21         0.0000      0.0000      0.0000      0.0000     -0.1292     -0.3012
        22         0.0606      0.0715      0.0827     -0.2417      0.0000      0.0000
        23         0.0000      0.0000      0.0000      0.0000      0.0442      0.0928
        24         0.0520      0.0214      0.7405     -0.0775      0.0000      0.0000
        25         0.0000      0.0000      0.0000      0.0000     -3.6062     -0.0434
 <0|del|b> * <b|rxdel|0> + <0|del|b> * <b|delr+rdel|0>
 Rotatory Strengths (R) in cgs (10**-40 erg-esu-cm/Gauss)
       state          XX          YY          ZZ    R(velocity)    E-M Angle
         1        -8.5394     -4.5435      0.0000     -4.3610       90.00
         2         6.2384      4.3112      7.5061      6.0186       43.96
         3        -6.6963     -4.4202      0.0000     -3.7055       90.00
         4       210.6230   -207.5167     -1.8445      0.4206       89.65
         5       -67.1998     38.0851      0.0000     -9.7049       90.00
         6        -3.9400     -5.6870     -7.2155     -5.6141       94.38
         7        -0.5216     -0.1863      0.0000     -0.2360       90.00
         8       -31.0390     30.3960      0.0000     -0.2143       90.00
         9       -62.3927     54.2447    -60.3533    -22.8338       92.43
        10        -3.9158      5.1489     -2.7712     -0.5127       90.96
        11      -129.1350     52.1593      0.0000    -25.6586       90.00
        12         0.7497     -0.2184      3.9267      1.4860       50.44
        13        97.3592    -86.9128   -113.4818    -34.3451       96.81
        14        -2.0497      2.8721      0.0000      0.2741       90.00
        15        46.4173    -83.0084     96.1146     19.8412       83.88
        16        -5.5597     15.8345      4.6917      4.9888       81.71
        17        -0.7135      0.2912     -0.5141     -0.3121      109.47
        18        10.0929      4.9202      0.0000      5.0043       90.00
        19        -0.0123     -0.0255     -0.0161     -0.0179       90.00
        20         0.8624      1.5594      6.9470      3.1229       13.96
        21         0.0119     -0.6721      4.5918      1.3105       85.56
        22       -16.5675     -0.0664      0.0000     -5.5447       90.00
        23         0.3820      0.0692      0.4082      0.2865       79.01
        24        -9.8464      1.4700      0.0000     -2.7921       90.00
        25       121.2870     -1.8049  -1641.8842   -507.4674      156.16
 1/2[<0|r|b>*<b|rxdel|0> + (<0|rxdel|b>*<b|r|0>)*]
 Rotatory Strengths (R) in cgs (10**-40 erg-esu-cm/Gauss)
       state          XX          YY          ZZ     R(length)
         1         0.0000      0.0000    -13.1344     -4.3781
         2       -24.8144     39.5961      0.0000      4.9273
         3         0.0000      0.0000    -11.4056     -3.8019
         4       -59.1126     60.4322      0.0000      0.4398
         5         0.0000      0.0000    -27.9499     -9.3166
         6        48.9168    -66.4273      0.0000     -5.8368
         7         0.0000      0.0000     -0.8171     -0.2724
         8         0.0000      0.0000     -0.6748     -0.2249
         9       467.7250   -536.1300      0.0000    -22.8017
        10        33.5898    -35.0158      0.0000     -0.4754
        11         0.0000      0.0000    -80.4037    -26.8012
        12        -0.7523      4.1654      0.0000      1.1377
        13       208.7878   -310.2680      0.0000    -33.8267
        14         0.0000      0.0000      0.8377      0.2792
        15       157.8987   -101.0285      0.0000     18.9567
        16        18.2204     -3.0832      0.0000      5.0457
        17        -1.2788     -0.1421      0.0000     -0.4736
        18         0.0000      0.0000     15.7014      5.2338
        19        -0.0294      0.0565      0.0000      0.0090
        20         4.0675      6.1412      0.0000      3.4029
        21       -20.9539     24.4443      0.0000      1.1635
        22         0.0000      0.0000    -17.0194     -5.6731
        23        -1.7170      3.1613      0.0000      0.4814
        24         0.0000      0.0000     -8.7975     -2.9325
        25         5.7726  -1565.0801      0.0000   -519.7692
  1/2[<0|del|b>*<b|r|0> + (<0|r|b>*<b|del|0>)*] (Au)
       state          X           Y           Z        Dip. S.   Osc.(frdel)
         1         0.0000      0.0000     -0.0044      0.0044      0.0029
         2         0.0001      0.0000      0.0000     -0.0001     -0.0001
         3         0.0000      0.0000     -0.0009      0.0009      0.0006
         4        -0.1372     -0.0155      0.0000      0.1526      0.1018
         5         0.0000      0.0000     -0.2689      0.2689      0.1792
         6        -0.0288     -0.0032      0.0000      0.0320      0.0213
         7         0.0000      0.0000     -0.0001      0.0001      0.0001
         8         0.0000      0.0000     -0.0090      0.0090      0.0060
         9        -0.1808     -0.0244      0.0000      0.2052      0.1368
        10        -0.0106     -0.0019      0.0000      0.0125      0.0083
        11         0.0000      0.0000     -0.2297      0.2297      0.1531
        12        -0.0002     -0.0003      0.0000      0.0005      0.0003
        13        -0.2014     -0.0303      0.0000      0.2317      0.1545
        14         0.0000      0.0000     -0.0050      0.0050      0.0033
        15        -0.1497     -0.0045      0.0000      0.1542      0.1028
        16        -0.0028      0.0000      0.0000      0.0028      0.0019
        17        -0.0001     -0.0005      0.0000      0.0006      0.0004
        18         0.0000      0.0000     -0.0007      0.0007      0.0005
        19         0.0000      0.0000      0.0000      0.0000      0.0000
        20        -0.0006     -0.0005      0.0000      0.0011      0.0008
        21        -0.0009     -0.0091      0.0000      0.0100      0.0067
        22         0.0000      0.0000     -0.0017      0.0017      0.0011
        23        -0.0001     -0.0007      0.0000      0.0008      0.0005
        24         0.0000      0.0000     -0.0082      0.0082      0.0055
        25        -0.0172     -0.0916      0.0000      0.1088      0.0725

 Excitation energies and oscillator strengths:
 
 Excited State   1:      Singlet-A      2.4306 eV  510.11 nm  f=0.0029  <S**2>=0.000
     112 ->115        -0.01602
     114 ->115         0.70230
     114 ->117        -0.07543
     114 ->123        -0.01912
 This state for optimization and/or second-order correction.
 Total Energy, E(TD-HF/TD-KS) =  -1385.37208739    
 Copying the excited state density for this state as the 1-particle RhoCI density.
 
 Excited State   2:      Singlet-B      3.4115 eV  363.44 nm  f=0.0004  <S**2>=0.000
     103 ->116         0.02073
     103 ->118        -0.01312
     103 ->119        -0.01086
     108 ->132         0.01188
     112 ->116        -0.01826
     112 ->119         0.01517
     112 ->122        -0.02447
     114 ->116         0.62587
     114 ->118        -0.29538
     114 ->119        -0.12347
     114 ->120         0.03618
     114 ->122        -0.03568
     114 ->169         0.01642
 
 Excited State   3:      Singlet-A      3.4695 eV  357.35 nm  f=0.0006  <S**2>=0.000
     103 ->117         0.02308
     112 ->115         0.03356
     112 ->117        -0.03797
     112 ->123        -0.01001
     114 ->115         0.07932
     114 ->117         0.69183
     114 ->123         0.09660
     114 ->125         0.01338
     114 ->135         0.01299
     114 ->141         0.02004
     114 ->142        -0.01463
     114 ->164        -0.01291
     114 ->168         0.01086
 
 Excited State   4:      Singlet-B      3.6645 eV  338.34 nm  f=0.0974  <S**2>=0.000
     102 ->119         0.01017
     103 ->119         0.02775
     112 ->116        -0.05973
     112 ->118         0.03711
     112 ->119         0.02384
     112 ->122         0.02518
     114 ->116         0.19552
     114 ->118         0.15685
     114 ->119         0.63616
     114 ->120         0.13488
     114 ->122         0.06677
     114 ->124         0.03000
     114 ->169        -0.01976
     114 <-119        -0.01744
 
 Excited State   5:      Singlet-A      3.6869 eV  336.29 nm  f=0.1721  <S**2>=0.000
      91 ->118        -0.01345
      99 ->123         0.01162
     105 ->115        -0.01815
     105 ->117         0.02253
     105 ->123        -0.04328
     109 ->116         0.05082
     109 ->118         0.06474
     109 ->120        -0.03291
     110 ->115         0.02571
     110 ->123        -0.02137
     111 ->116        -0.01954
     111 ->118        -0.03581
     111 ->120         0.01865
     112 ->115         0.03504
     113 ->115         0.69538
     114 ->121        -0.02261
     105 <-123        -0.01499
     106 <-120        -0.01031
     109 <-116         0.01187
     109 <-118         0.01670
     113 <-115        -0.02490
 
 Excited State   6:      Singlet-B      3.9018 eV  317.76 nm  f=0.0208  <S**2>=0.000
     112 ->116         0.02276
     112 ->118        -0.02869
     112 ->119        -0.03077
     114 ->116         0.25658
     114 ->118         0.60873
     114 ->119        -0.21495
     114 ->120        -0.08395
     114 ->122         0.08756
 
 Excited State   7:      Singlet-A      3.9364 eV  314.97 nm  f=0.0001  <S**2>=0.000
     103 ->115        -0.01167
     110 ->115        -0.01037
     112 ->115         0.70307
     112 ->117        -0.04635
     112 ->123        -0.01167
     113 ->115        -0.03533
     114 ->115         0.01286
     114 ->117        -0.03915
 
 Excited State   8:      Singlet-A      4.0494 eV  306.18 nm  f=0.0063  <S**2>=0.000
      93 ->122        -0.01156
     106 ->116        -0.01352
     106 ->118         0.01300
     106 ->119         0.02042
     107 ->116         0.02814
     107 ->118        -0.02375
     107 ->119        -0.04075
     108 ->116         0.03099
     108 ->118        -0.02603
     108 ->119        -0.04148
     108 ->122        -0.01457
     109 ->116         0.02272
     109 ->118        -0.01167
     109 ->119        -0.03449
     110 ->115        -0.07768
     110 ->117         0.01890
     111 ->116         0.03001
     111 ->118        -0.03356
     111 ->119        -0.06108
     111 ->122        -0.01061
     112 ->132        -0.07839
     112 ->133        -0.01244
     113 ->115         0.02312
     114 ->121         0.68571
     114 ->125        -0.01032
     114 ->132         0.01249
     108 <-122        -0.01193
     111 <-119        -0.01244
     112 <-132        -0.01837
     114 <-121        -0.02329
 
 Excited State   9:      Singlet-B      4.0656 eV  304.96 nm  f=0.1386  <S**2>=0.000
     107 ->132        -0.01469
     108 ->121         0.01446
     108 ->132        -0.01896
     109 ->132        -0.01110
     111 ->132        -0.01999
     112 ->116         0.05837
     112 ->118        -0.05371
     112 ->119        -0.12028
     112 ->120        -0.01739
     112 ->122        -0.01382
     114 ->118        -0.12830
     114 ->119         0.03922
     114 ->120        -0.29795
     114 ->122         0.59795
     114 ->124         0.10670
     114 ->126        -0.01468
     114 ->129         0.01034
     114 ->131        -0.01432
     112 <-119        -0.01396
     114 <-122        -0.01214
 
 Excited State  10:      Singlet-B      4.1974 eV  295.38 nm  f=0.0088  <S**2>=0.000
     112 ->116         0.01265
     112 ->118        -0.01404
     112 ->119        -0.03466
     112 ->120        -0.01557
     114 ->116        -0.04449
     114 ->119        -0.14921
     114 ->120         0.61757
     114 ->122         0.29664
     114 ->124         0.05997
     114 ->129        -0.01229
     114 ->131        -0.01399
 
 Excited State  11:      Singlet-A      4.2827 eV  289.50 nm  f=0.1600  <S**2>=0.000
      94 ->115         0.02024
      98 ->115         0.01243
      99 ->115        -0.01148
     102 ->115        -0.05001
     103 ->115         0.01544
     105 ->115        -0.01582
     107 ->116         0.01771
     109 ->118        -0.01816
     110 ->115         0.69570
     110 ->117         0.02016
     110 ->123         0.02441
     110 ->135         0.01324
     110 ->141         0.02459
     110 ->142        -0.01766
     111 ->119        -0.01574
     112 ->115         0.01055
     112 ->132        -0.01736
     113 ->115        -0.02109
     113 ->117         0.01119
     114 ->121         0.07212
     114 ->132         0.03248
 
 Excited State  12:      Singlet-B      4.3099 eV  287.67 nm  f=0.0003  <S**2>=0.000
     108 ->127         0.01593
     111 ->115        -0.02275
     112 ->124        -0.01223
     114 ->119        -0.01338
     114 ->122        -0.10841
     114 ->124         0.62681
     114 ->126         0.27265
     114 ->128         0.08481
     114 ->129         0.07879
     114 ->131         0.04764
     114 ->134         0.03863
     114 ->137         0.02301
     114 ->138         0.01774
     114 ->149        -0.01016
 
 Excited State  13:      Singlet-B      4.3862 eV  282.67 nm  f=0.1586  <S**2>=0.000
      91 ->115         0.01577
     104 ->115         0.01580
     105 ->116        -0.01111
     106 ->115         0.07652
     107 ->115        -0.15335
     109 ->115        -0.26822
     109 ->123        -0.01004
     110 ->116         0.05160
     110 ->118        -0.03579
     110 ->119         0.02634
     110 ->122         0.02461
     110 ->124         0.01109
     111 ->115         0.60339
     111 ->117        -0.02365
     111 ->141         0.01316
     113 ->116         0.10827
     113 ->118         0.11444
     113 ->119        -0.01273
     113 ->120         0.01420
     114 ->124         0.02188
     109 <-115         0.01367
 
 Excited State  14:      Singlet-A      4.4404 eV  279.22 nm  f=0.0034  <S**2>=0.000
     112 ->117        -0.01629
     112 ->123        -0.01441
     114 ->117        -0.09888
     114 ->123         0.69539
     114 ->125        -0.03831
     114 ->127        -0.05733
     114 ->136        -0.01279
     114 ->142        -0.01691
 
 Excited State  15:      Singlet-B      4.4528 eV  278.44 nm  f=0.1095  <S**2>=0.000
      91 ->115        -0.01663
     105 ->118         0.01729
     105 ->120        -0.01122
     106 ->115         0.07468
     106 ->141         0.01071
     107 ->115        -0.25171
     108 ->115         0.04019
     109 ->115         0.58565
     109 ->123        -0.01129
     109 ->135         0.01095
     109 ->141         0.01442
     110 ->116         0.06773
     110 ->119         0.01973
     110 ->122         0.02140
     111 ->115         0.22114
     111 ->117        -0.02715
     113 ->116        -0.07706
     113 ->118        -0.14472
     113 ->119         0.03042
     113 ->120        -0.01141
     109 <-115        -0.01329
 
 Excited State  16:      Singlet-B      4.6397 eV  267.22 nm  f=0.0014  <S**2>=0.000
     104 ->115        -0.01123
     105 ->116        -0.04212
     105 ->118        -0.04830
     105 ->120         0.04321
     106 ->115         0.56922
     106 ->123         0.02768
     107 ->115         0.36736
     109 ->115         0.09429
     109 ->117        -0.06613
     109 ->123         0.08472
     109 ->127         0.01434
     109 ->130         0.01222
     110 ->116        -0.02083
     110 ->118        -0.03590
     110 ->120         0.02405
     111 ->115         0.04610
     111 ->117         0.02326
     111 ->123        -0.04719
     113 ->116         0.04160
     113 ->118         0.05029
     113 ->119        -0.01045
     113 ->120         0.01706
     105 <-120         0.01068
     106 <-115        -0.01255
     109 <-123         0.01215
 
 Excited State  17:      Singlet-B      4.6558 eV  266.30 nm  f=0.0006  <S**2>=0.000
     112 ->124         0.01080
     114 ->120         0.01224
     114 ->122         0.06606
     114 ->124        -0.27325
     114 ->126         0.43450
     114 ->128         0.37050
     114 ->129         0.24351
     114 ->131         0.15477
     114 ->134        -0.02399
     114 ->137         0.06102
     114 ->138         0.06738
     114 ->147         0.01415
     114 ->149         0.02500
 
 Excited State  18:      Singlet-A      4.6861 eV  264.58 nm  f=0.0005  <S**2>=0.000
     108 ->124         0.01767
     108 ->126         0.01898
     108 ->128         0.01368
     108 ->129        -0.01521
     112 ->117        -0.01160
     114 ->117        -0.02528
     114 ->121         0.01021
     114 ->123         0.05723
     114 ->125         0.60033
     114 ->127         0.33776
     114 ->130        -0.13027
     114 ->136         0.02546
     114 ->141         0.01813
     114 ->142         0.01238
     114 ->146        -0.02087
 
 Excited State  19:      Singlet-B      4.7206 eV  262.64 nm  f=0.0000  <S**2>=0.000
     106 ->115         0.01905
     107 ->115        -0.01277
     108 ->115         0.70271
     108 ->117        -0.04437
     108 ->123        -0.01103
     109 ->115        -0.04331
     111 ->115        -0.03479
 
 Excited State  20:      Singlet-B      4.7967 eV  258.48 nm  f=0.0008  <S**2>=0.000
      93 ->115        -0.01053
     104 ->115        -0.01280
     105 ->116         0.01135
     106 ->115        -0.37007
     106 ->117         0.02507
     107 ->115         0.50339
     107 ->117        -0.04251
     108 ->115         0.04322
     109 ->115         0.17093
     109 ->123        -0.01314
     110 ->116        -0.05455
     110 ->118         0.02338
     110 ->119        -0.02132
     110 ->120        -0.01006
     110 ->122        -0.02098
     111 ->115         0.26096
     111 ->117        -0.01861
     113 ->116        -0.03198
     113 ->118         0.01736
     113 ->119        -0.01098
     114 ->126        -0.01017
     114 ->129         0.01376
 
 Excited State  21:      Singlet-B      4.8292 eV  256.74 nm  f=0.0094  <S**2>=0.000
     107 ->115        -0.01511
     108 ->115        -0.01049
     108 ->125        -0.01308
     108 ->127        -0.02660
     108 ->130         0.01069
     108 ->133         0.01153
     111 ->127         0.01104
     114 ->120         0.01365
     114 ->122        -0.01618
     114 ->124         0.05600
     114 ->126        -0.32281
     114 ->128        -0.07375
     114 ->129         0.55042
     114 ->131         0.26872
     114 ->137         0.05301
     114 ->138         0.05686
     114 ->144         0.01479
     114 ->147         0.01095
     114 ->149         0.03029
     114 ->159        -0.01040
     114 ->162        -0.02152
     114 ->163        -0.01706
     114 ->181        -0.01035
 
 Excited State  22:      Singlet-A      4.8801 eV  254.06 nm  f=0.0012  <S**2>=0.000
     108 ->126         0.01546
     108 ->128         0.01588
     112 ->121         0.01106
     114 ->123         0.03250
     114 ->125        -0.31249
     114 ->127         0.59040
     114 ->130         0.11360
     114 ->132         0.05471
     114 ->133        -0.16350
     114 ->135         0.08094
     114 ->136        -0.01931
     114 ->139         0.01503
     114 ->141        -0.01786
     114 ->142         0.01052
     114 ->146        -0.01315
 
 Excited State  23:      Singlet-B      4.9572 eV  250.11 nm  f=0.0007  <S**2>=0.000
     108 ->133        -0.01291
     112 ->124         0.01327
     112 ->126         0.01790
     112 ->128         0.01079
     114 ->122        -0.02563
     114 ->124         0.09885
     114 ->126        -0.34347
     114 ->128         0.56306
     114 ->129        -0.08656
     114 ->131        -0.10339
     114 ->134        -0.18216
     114 ->137         0.01894
     114 ->144        -0.01555
     114 ->149         0.02584
 
 Excited State  24:      Singlet-A      4.9886 eV  248.53 nm  f=0.0058  <S**2>=0.000
      99 ->115        -0.01035
     105 ->115        -0.08042
     105 ->117         0.03428
     105 ->123        -0.02571
     106 ->116         0.02867
     106 ->118         0.03835
     107 ->118         0.02272
     109 ->116         0.04825
     109 ->118         0.06086
     109 ->120        -0.01479
     110 ->123        -0.01756
     111 ->116        -0.01571
     111 ->118        -0.04007
     111 ->119         0.01018
     112 ->117         0.02543
     113 ->115        -0.01912
     113 ->117         0.68885
     113 ->130         0.01016
     113 ->141        -0.01090
     113 ->142         0.01008
     114 ->132        -0.05001
 
 Excited State  25:      Singlet-B      5.0457 eV  245.72 nm  f=0.0744  <S**2>=0.000
     103 ->122         0.01156
     104 ->115        -0.02184
     106 ->115        -0.05924
     106 ->117        -0.02509
     106 ->123        -0.01238
     107 ->117         0.05434
     108 ->121        -0.04044
     109 ->115         0.08952
     109 ->117        -0.04159
     110 ->116         0.05515
     110 ->120         0.01047
     110 ->122         0.01027
     111 ->115        -0.05716
     111 ->117        -0.05352
     111 ->121         0.01119
     111 ->123        -0.01594
     112 ->116        -0.35324
     112 ->118         0.13151
     112 ->119         0.01515
     112 ->120        -0.01909
     112 ->122        -0.01250
     113 ->116         0.56022
     113 ->118         0.01281
     113 ->119         0.06642
     113 ->122         0.05586
     114 ->116        -0.01702
     114 ->119        -0.03924
     114 ->120        -0.02092
     114 ->122         0.04144
     109 <-115        -0.01100
     113 <-118        -0.01014
 SavETr:  write IOETrn=   770 NScale= 10 NData=  16 NLR=1 NState=   25 LETran=     460.
 NEqPCM:  Using equilibrium solvation (IEInf=0, Eps=   2.3741, EpsInf=   2.2383)
          Differentiating once with respect to electric field.
                with respect to dipole field.
          Electric field/nuclear overlap derivatives assumed to be zero.
          There are     1 degrees of freedom in the 1st order CPHF.  IDoFFX=0 NUNeed=     1.
 LinEq1:  Iter=  0 NonCon=     1 RMS=5.67D-03 Max=5.37D-01 NDo=     1
 AX will form     1 AO Fock derivatives at one time.
 LinEq1:  Iter=  1 NonCon=     1 RMS=3.91D-03 Max=3.05D-01 NDo=     1
 LinEq1:  Iter=  2 NonCon=     1 RMS=2.04D-03 Max=1.67D-01 NDo=     1
 LinEq1:  Iter=  3 NonCon=     1 RMS=1.12D-03 Max=1.02D-01 NDo=     1
 LinEq1:  Iter=  4 NonCon=     1 RMS=6.44D-04 Max=5.50D-02 NDo=     1
 LinEq1:  Iter=  5 NonCon=     1 RMS=4.08D-04 Max=2.22D-02 NDo=     1
 LinEq1:  Iter=  6 NonCon=     1 RMS=2.02D-04 Max=1.03D-02 NDo=     1
 LinEq1:  Iter=  7 NonCon=     1 RMS=1.13D-04 Max=7.55D-03 NDo=     1
 LinEq1:  Iter=  8 NonCon=     1 RMS=6.91D-05 Max=2.96D-03 NDo=     1
 LinEq1:  Iter=  9 NonCon=     1 RMS=4.62D-05 Max=3.35D-03 NDo=     1
 LinEq1:  Iter= 10 NonCon=     1 RMS=3.06D-05 Max=2.13D-03 NDo=     1
 LinEq1:  Iter= 11 NonCon=     1 RMS=1.32D-05 Max=5.34D-04 NDo=     1
 LinEq1:  Iter= 12 NonCon=     1 RMS=8.49D-06 Max=3.65D-04 NDo=     1
 LinEq1:  Iter= 13 NonCon=     1 RMS=3.64D-06 Max=2.80D-04 NDo=     1
 LinEq1:  Iter= 14 NonCon=     1 RMS=2.48D-06 Max=1.52D-04 NDo=     1
 LinEq1:  Iter= 15 NonCon=     1 RMS=1.10D-06 Max=8.41D-05 NDo=     1
 LinEq1:  Iter= 16 NonCon=     1 RMS=8.29D-07 Max=4.11D-05 NDo=     1
 LinEq1:  Iter= 17 NonCon=     1 RMS=4.74D-07 Max=4.13D-05 NDo=     1
 LinEq1:  Iter= 18 NonCon=     1 RMS=2.43D-07 Max=1.24D-05 NDo=     1
 LinEq1:  Iter= 19 NonCon=     1 RMS=1.14D-07 Max=5.99D-06 NDo=     1
 LinEq1:  Iter= 20 NonCon=     1 RMS=6.47D-08 Max=2.83D-06 NDo=     1
 LinEq1:  Iter= 21 NonCon=     1 RMS=3.11D-08 Max=1.50D-06 NDo=     1
 LinEq1:  Iter= 22 NonCon=     1 RMS=1.91D-08 Max=1.09D-06 NDo=     1
 LinEq1:  Iter= 23 NonCon=     1 RMS=6.38D-09 Max=2.89D-07 NDo=     1
 LinEq1:  Iter= 24 NonCon=     1 RMS=3.14D-09 Max=1.26D-07 NDo=     1
 LinEq1:  Iter= 25 NonCon=     1 RMS=1.39D-09 Max=6.99D-08 NDo=     1
 LinEq1:  Iter= 26 NonCon=     1 RMS=7.13D-10 Max=4.10D-08 NDo=     1
 LinEq1:  Iter= 27 NonCon=     1 RMS=4.30D-10 Max=1.99D-08 NDo=     1
 LinEq1:  Iter= 28 NonCon=     1 RMS=1.62D-10 Max=7.17D-09 NDo=     1
 LinEq1:  Iter= 29 NonCon=     1 RMS=1.01D-10 Max=3.12D-09 NDo=     1
 LinEq1:  Iter= 30 NonCon=     1 RMS=3.55D-11 Max=1.25D-09 NDo=     1
 LinEq1:  Iter= 31 NonCon=     0 RMS=1.65D-11 Max=4.59D-10 NDo=     1
 Linear equations converged to 1.000D-10 1.000D-09 after    31 iterations.
 End of Minotr F.D. properties file   721 does not exist.
 End of Minotr F.D. properties file   722 does not exist.
 End of Minotr F.D. properties file   788 does not exist.

 **********************************************************************

            Population analysis using the SCF density.

 **********************************************************************

 Orbital symmetries:
       Occupied  (A) (A) (A) (B) (A) (B) (A) (B) (A) (A) (B) (A)
                 (B) (A) (A) (B) (B) (A) (A) (B) (B) (A) (B) (A)
                 (B) (A) (A) (B) (B) (A) (A) (B) (A) (A) (A) (A)
                 (A) (B) (B) (A) (A) (A) (B) (A) (B) (B) (A) (B)
                 (B) (A) (A) (A) (B) (A) (B) (A) (B) (B) (B) (A)
                 (A) (B) (A) (B) (A) (A) (A) (B) (A) (B) (B) (A)
                 (A) (B) (B) (B) (A) (B) (A) (B) (B) (A) (B) (B)
                 (A) (B) (A) (A) (A) (A) (A) (B) (A) (B) (B) (B)
                 (A) (B) (B) (B) (A) (B) (B) (A) (B) (A) (A) (A)
                 (A) (B) (A) (B) (B) (B)
       Virtual   (B) (A) (B) (A) (A) (A) (B) (A) (B) (A) (B) (A)
                 (B) (A) (A) (B) (A) (B) (B) (A) (B) (B) (A) (A)
                 (B) (A) (B) (B) (B) (A) (A) (B) (A) (B) (A) (B)
                 (A) (B) (B) (B) (A) (A) (B) (A) (A) (B) (B) (A)
                 (A) (B) (A) (A) (B) (B) (A) (A) (A) (B) (A) (B)
                 (A) (A) (B) (A) (B) (B) (A) (B) (B) (B) (A) (B)
                 (A) (B) (A) (A) (B) (B) (A) (B) (A) (A) (B) (A)
                 (A) (B) (B) (A) (A) (B) (A) (B) (A) (B) (A) (B)
                 (A) (B) (A) (B) (A) (B) (A) (B) (B) (A) (B) (A)
                 (A) (B) (A) (B) (A) (B) (A) (B) (A) (A) (B) (A)
                 (B) (A) (A) (B) (B) (A) (B) (A) (A) (B) (B) (B)
                 (A) (B) (A) (A) (B) (B) (A) (B) (B) (A) (B) (A)
                 (B) (B) (A) (B) (A) (B) (A) (B) (B) (A) (A) (B)
                 (A) (B) (A) (A) (B) (B) (A) (B) (A) (B) (A) (B)
                 (B) (B) (A) (B) (A) (A) (A) (A) (B) (B) (A) (B)
                 (B) (A) (A) (B) (B) (A) (B) (B) (A) (A) (B) (A)
                 (B) (A) (B) (A) (A) (B) (B) (A) (B) (A) (A) (A)
                 (B) (A) (B) (A) (B) (B) (B) (A) (B) (A) (B) (B)
                 (B) (A) (A) (A) (B) (A) (B) (A) (B) (A) (B) (A)
                 (B) (A) (A) (B) (A) (B) (B) (B) (A) (A) (B) (A)
                 (B) (A) (A) (A) (B) (A) (B) (A) (B) (B) (A) (A)
                 (A) (B) (A) (B) (B) (A) (B) (B) (A) (A) (B) (A)
                 (B) (B) (A) (A) (B) (A) (B) (A) (B) (A) (B) (B)
                 (A) (B) (B) (A) (A) (B) (B) (A) (A) (B) (B) (A)
                 (B) (B) (B) (A) (B) (A) (A) (B) (B) (A) (A) (B)
                 (B) (A) (A) (A) (B) (B) (A) (B) (A) (B) (A) (A)
                 (B) (A) (B) (B) (A) (B) (A) (A) (B) (A) (B) (B)
                 (A) (B) (B) (B) (A) (A) (B) (B) (B) (A) (A) (A)
                 (B) (A) (A) (B) (A) (B) (A) (B) (B) (A) (B) (A)
                 (A) (B) (A) (A) (A) (A) (B) (B) (A) (A) (A) (B)
                 (A) (A) (B) (B) (B) (B) (B) (A) (B) (B) (A) (A)
                 (B) (A) (B) (A) (B) (A) (B) (A) (B) (A) (B) (A)
                 (A) (A) (A) (B) (B) (A) (B) (A) (A) (B) (A) (B)
                 (A) (B) (A) (B) (A) (B) (B) (A) (B) (B) (B) (A)
                 (A) (A) (B) (B) (A) (A) (B) (B) (A) (A) (B) (B)
                 (A) (A) (B) (A) (B) (A) (A) (B) (A) (B) (A) (B)
                 (B) (A) (A) (B) (A) (B) (A) (B) (A) (A) (B) (B)
                 (A) (B) (B) (A) (B) (A) (A) (A) (B) (A) (B) (B)
                 (A) (A) (B) (A) (B) (A) (B) (A) (A) (B) (B) (B)
                 (B) (A) (B) (B) (A) (A) (B) (A) (B) (A) (A) (A)
                 (A) (B) (A) (B) (A) (B) (B) (B) (B) (A) (A) (B)
                 (B) (A) (B) (A) (A) (B) (A) (B) (A) (A) (B) (A)
                 (B) (B) (B) (A) (A) (A) (A) (B) (A) (B) (A) (B)
                 (B) (B) (A) (A) (B) (A) (A) (B) (B) (B) (A) (B)
                 (A) (B) (B) (A) (B) (A) (B) (A) (A) (B) (B) (A)
                 (A) (B) (A) (B) (A) (B) (A) (B) (A) (A) (B) (A)
                 (B) (B) (A) (A) (A) (A) (A) (B) (A) (A) (B) (A)
                 (B) (A) (B) (B) (B) (B) (B) (A) (A) (A) (B) (B)
                 (A) (A) (B) (B) (A) (B) (A) (A) (A) (A) (A) (B)
                 (B) (A) (A) (B) (B) (A) (B) (A) (A) (B) (A) (B)
                 (B) (A) (B) (B) (A) (B) (B) (A) (A) (B) (A) (B)
                 (A) (A) (A) (A) (B) (B) (A) (A) (A) (A)
 The electronic state is 1-A.
 Alpha  occ. eigenvalues --  -19.22558 -19.20424 -14.38298 -10.27219 -10.27218
 Alpha  occ. eigenvalues --  -10.25830 -10.25830 -10.24582 -10.24582 -10.24111
 Alpha  occ. eigenvalues --  -10.21212 -10.21212 -10.20620 -10.20619 -10.20500
 Alpha  occ. eigenvalues --  -10.20500 -10.20459 -10.20458 -10.20435 -10.20433
 Alpha  occ. eigenvalues --  -10.20056 -10.20056 -10.19521 -10.19521 -10.19513
 Alpha  occ. eigenvalues --  -10.19513 -10.19353 -10.19353 -10.19209 -10.19209
 Alpha  occ. eigenvalues --  -10.19000 -10.18749 -10.18749  -6.74200  -1.11599
 Alpha  occ. eigenvalues --   -1.09625  -0.98110  -0.87686  -0.87507  -0.86831
 Alpha  occ. eigenvalues --   -0.86169  -0.84307  -0.78531  -0.77689  -0.77469
 Alpha  occ. eigenvalues --   -0.76654  -0.76347  -0.76167  -0.75548  -0.74017
 Alpha  occ. eigenvalues --   -0.73983  -0.71078  -0.65551  -0.65388  -0.65384
 Alpha  occ. eigenvalues --   -0.64450  -0.62277  -0.60891  -0.60770  -0.60400
 Alpha  occ. eigenvalues --   -0.58847  -0.57883  -0.57087  -0.55590  -0.54391
 Alpha  occ. eigenvalues --   -0.53024  -0.51155  -0.50365  -0.49396  -0.49112
 Alpha  occ. eigenvalues --   -0.48194  -0.47745  -0.47504  -0.47465  -0.46885
 Alpha  occ. eigenvalues --   -0.46003  -0.45982  -0.45470  -0.44925  -0.44443
 Alpha  occ. eigenvalues --   -0.44065  -0.43934  -0.43930  -0.43203  -0.42570
 Alpha  occ. eigenvalues --   -0.41264  -0.40117  -0.39518  -0.38900  -0.38477
 Alpha  occ. eigenvalues --   -0.38305  -0.38282  -0.38041  -0.37909  -0.36682
 Alpha  occ. eigenvalues --   -0.36347  -0.36300  -0.36195  -0.35851  -0.35423
 Alpha  occ. eigenvalues --   -0.34083  -0.32627  -0.32503  -0.31586  -0.29013
 Alpha  occ. eigenvalues --   -0.27449  -0.27230  -0.26526  -0.26362  -0.26165
 Alpha  occ. eigenvalues --   -0.26114  -0.23672  -0.23557  -0.18282
 Alpha virt. eigenvalues --   -0.07884  -0.03210  -0.03103  -0.02685  -0.02080
 Alpha virt. eigenvalues --   -0.01699  -0.01107  -0.00783  -0.00576  -0.00451
 Alpha virt. eigenvalues --    0.00602   0.00714   0.01455   0.01704   0.01940
 Alpha virt. eigenvalues --    0.02030   0.02325   0.02379   0.02706   0.03099
 Alpha virt. eigenvalues --    0.03777   0.04102   0.04145   0.04392   0.05014
 Alpha virt. eigenvalues --    0.05026   0.05427   0.05574   0.05964   0.06078
 Alpha virt. eigenvalues --    0.06451   0.06649   0.06977   0.07088   0.07301
 Alpha virt. eigenvalues --    0.07756   0.08246   0.08363   0.08735   0.09046
 Alpha virt. eigenvalues --    0.09501   0.09838   0.10265   0.10403   0.10859
 Alpha virt. eigenvalues --    0.10867   0.11598   0.11746   0.11881   0.11972
 Alpha virt. eigenvalues --    0.12310   0.12541   0.12567   0.12758   0.12866
 Alpha virt. eigenvalues --    0.12969   0.13228   0.13664   0.13688   0.13919
 Alpha virt. eigenvalues --    0.14005   0.14129   0.14213   0.14496   0.15039
 Alpha virt. eigenvalues --    0.15622   0.15706   0.16111   0.16194   0.16628
 Alpha virt. eigenvalues --    0.16835   0.16955   0.17054   0.17412   0.17442
 Alpha virt. eigenvalues --    0.17824   0.17853   0.18133   0.18201   0.18329
 Alpha virt. eigenvalues --    0.18359   0.18897   0.19035   0.19212   0.19312
 Alpha virt. eigenvalues --    0.19370   0.19492   0.19673   0.20249   0.20357
 Alpha virt. eigenvalues --    0.20817   0.20890   0.20948   0.21096   0.21243
 Alpha virt. eigenvalues --    0.21331   0.21924   0.22017   0.22139   0.22176
 Alpha virt. eigenvalues --    0.22644   0.22649   0.22811   0.23126   0.23214
 Alpha virt. eigenvalues --    0.23250   0.23450   0.23938   0.24128   0.24331
 Alpha virt. eigenvalues --    0.24404   0.24639   0.24726   0.24931   0.25059
 Alpha virt. eigenvalues --    0.25178   0.25470   0.25874   0.26022   0.26661
 Alpha virt. eigenvalues --    0.26741   0.26867   0.27002   0.27241   0.27430
 Alpha virt. eigenvalues --    0.27579   0.27817   0.27920   0.28296   0.28552
 Alpha virt. eigenvalues --    0.29193   0.29324   0.29341   0.29593   0.29702
 Alpha virt. eigenvalues --    0.30047   0.30198   0.30708   0.30759   0.31130
 Alpha virt. eigenvalues --    0.31422   0.31626   0.31750   0.31939   0.31954
 Alpha virt. eigenvalues --    0.32600   0.32737   0.33219   0.33224   0.33451
 Alpha virt. eigenvalues --    0.33738   0.34055   0.34329   0.34523   0.34889
 Alpha virt. eigenvalues --    0.35061   0.35246   0.35431   0.35549   0.35915
 Alpha virt. eigenvalues --    0.36035   0.36459   0.36753   0.36850   0.37299
 Alpha virt. eigenvalues --    0.37670   0.38313   0.38701   0.39516   0.39970
 Alpha virt. eigenvalues --    0.40570   0.40713   0.40841   0.41379   0.42554
 Alpha virt. eigenvalues --    0.42884   0.43012   0.43502   0.44055   0.44182
 Alpha virt. eigenvalues --    0.44816   0.45922   0.46544   0.46663   0.48324
 Alpha virt. eigenvalues --    0.48415   0.48795   0.49430   0.50146   0.50360
 Alpha virt. eigenvalues --    0.50607   0.53997   0.57976   0.58170   0.58866
 Alpha virt. eigenvalues --    0.59150   0.59617   0.59948   0.60297   0.63248
 Alpha virt. eigenvalues --    0.64575   0.65966   0.67082   0.67411   0.67790
 Alpha virt. eigenvalues --    0.67930   0.67993   0.68168   0.68681   0.69402
 Alpha virt. eigenvalues --    0.70262   0.70783   0.71110   0.71197   0.71463
 Alpha virt. eigenvalues --    0.71675   0.72148   0.72228   0.72533   0.73123
 Alpha virt. eigenvalues --    0.73499   0.73873   0.74151   0.74170   0.74309
 Alpha virt. eigenvalues --    0.74840   0.75206   0.75753   0.75863   0.76189
 Alpha virt. eigenvalues --    0.76430   0.76596   0.76782   0.76926   0.78772
 Alpha virt. eigenvalues --    0.79073   0.79393   0.80025   0.80149   0.80728
 Alpha virt. eigenvalues --    0.80945   0.81056   0.81073   0.82148   0.82314
 Alpha virt. eigenvalues --    0.83205   0.83923   0.83948   0.84997   0.85542
 Alpha virt. eigenvalues --    0.85581   0.86525   0.87233   0.87530   0.88168
 Alpha virt. eigenvalues --    0.88336   0.88890   0.89654   0.90335   0.90811
 Alpha virt. eigenvalues --    0.91067   0.91734   0.91962   0.92057   0.92602
 Alpha virt. eigenvalues --    0.93031   0.93227   0.93551   0.94001   0.94860
 Alpha virt. eigenvalues --    0.95565   0.95662   0.96398   0.97256   0.97764
 Alpha virt. eigenvalues --    0.98488   0.98649   0.99240   0.99877   1.00125
 Alpha virt. eigenvalues --    1.00828   1.01946   1.03091   1.03879   1.04642
 Alpha virt. eigenvalues --    1.05304   1.05836   1.06727   1.07112   1.08005
 Alpha virt. eigenvalues --    1.08606   1.08682   1.10112   1.10723   1.11996
 Alpha virt. eigenvalues --    1.12424   1.12773   1.13091   1.14225   1.14309
 Alpha virt. eigenvalues --    1.15581   1.16486   1.17125   1.17632   1.17642
 Alpha virt. eigenvalues --    1.18236   1.18472   1.18997   1.20329   1.21383
 Alpha virt. eigenvalues --    1.21554   1.21653   1.22050   1.22615   1.22644
 Alpha virt. eigenvalues --    1.23098   1.24161   1.24810   1.24819   1.26034
 Alpha virt. eigenvalues --    1.26290   1.26911   1.27305   1.27450   1.29428
 Alpha virt. eigenvalues --    1.30020   1.30131   1.31218   1.31931   1.32176
 Alpha virt. eigenvalues --    1.32675   1.33168   1.34051   1.34184   1.34300
 Alpha virt. eigenvalues --    1.35142   1.35782   1.36032   1.36345   1.36400
 Alpha virt. eigenvalues --    1.37010   1.37698   1.37914   1.39112   1.39484
 Alpha virt. eigenvalues --    1.39734   1.40209   1.40426   1.40683   1.40701
 Alpha virt. eigenvalues --    1.40983   1.41183   1.41320   1.42102   1.42147
 Alpha virt. eigenvalues --    1.43851   1.44417   1.44779   1.45414   1.46763
 Alpha virt. eigenvalues --    1.46862   1.48419   1.48998   1.49555   1.50435
 Alpha virt. eigenvalues --    1.50876   1.51074   1.51255   1.51836   1.52388
 Alpha virt. eigenvalues --    1.54473   1.56700   1.57278   1.59621   1.62933
 Alpha virt. eigenvalues --    1.65917   1.69267   1.69389   1.70682   1.71615
 Alpha virt. eigenvalues --    1.73641   1.74442   1.74506   1.77995   1.79439
 Alpha virt. eigenvalues --    1.81154   1.81725   1.82786   1.83001   1.83592
 Alpha virt. eigenvalues --    1.83951   1.85792   1.86808   1.86983   1.87397
 Alpha virt. eigenvalues --    1.87875   1.88935   1.89135   1.89964   1.90651
 Alpha virt. eigenvalues --    1.91227   1.91262   1.91642   1.91644   1.92012
 Alpha virt. eigenvalues --    1.92554   1.94065   1.94210   1.94441   1.95035
 Alpha virt. eigenvalues --    1.95183   1.95523   1.95800   1.95973   1.96132
 Alpha virt. eigenvalues --    1.96273   1.96470   1.97809   1.98170   1.98541
 Alpha virt. eigenvalues --    1.98831   1.99399   1.99865   2.00145   2.01008
 Alpha virt. eigenvalues --    2.01240   2.02948   2.03019   2.03531   2.04179
 Alpha virt. eigenvalues --    2.04292   2.04831   2.05257   2.05924   2.05992
 Alpha virt. eigenvalues --    2.07920   2.09758   2.09860   2.11721   2.12193
 Alpha virt. eigenvalues --    2.12231   2.14782   2.17370   2.17894   2.18484
 Alpha virt. eigenvalues --    2.18614   2.21851   2.22636   2.23439   2.23517
 Alpha virt. eigenvalues --    2.24309   2.25425   2.25478   2.25584   2.25765
 Alpha virt. eigenvalues --    2.28248   2.28347   2.29120   2.30317   2.31190
 Alpha virt. eigenvalues --    2.31700   2.32290   2.32617   2.33129   2.33529
 Alpha virt. eigenvalues --    2.33565   2.34426   2.34953   2.37983   2.38046
 Alpha virt. eigenvalues --    2.38667   2.38973   2.39000   2.39399   2.39581
 Alpha virt. eigenvalues --    2.39874   2.40034   2.40963   2.41678   2.42451
 Alpha virt. eigenvalues --    2.42518   2.43343   2.44936   2.45645   2.46737
 Alpha virt. eigenvalues --    2.47497   2.48570   2.48755   2.49501   2.50031
 Alpha virt. eigenvalues --    2.50842   2.51055   2.51348   2.53369   2.53422
 Alpha virt. eigenvalues --    2.53962   2.56107   2.56395   2.57038   2.57140
 Alpha virt. eigenvalues --    2.57441   2.57709   2.58001   2.58062   2.58267
 Alpha virt. eigenvalues --    2.58649   2.58762   2.59526   2.60174   2.60695
 Alpha virt. eigenvalues --    2.63051   2.63898   2.64113   2.64698   2.65261
 Alpha virt. eigenvalues --    2.65741   2.66072   2.66271   2.66845   2.67435
 Alpha virt. eigenvalues --    2.70205   2.70281   2.71222   2.72508   2.73596
 Alpha virt. eigenvalues --    2.73905   2.74923   2.75096   2.75713   2.76567
 Alpha virt. eigenvalues --    2.77259   2.77816   2.78663   2.78708   2.79768
 Alpha virt. eigenvalues --    2.80649   2.82119   2.84419   2.84883   2.86271
 Alpha virt. eigenvalues --    2.86453   2.89036   2.89161   2.95635   2.95767
 Alpha virt. eigenvalues --    2.96229   3.03323   3.04011   3.05081   3.08365
 Alpha virt. eigenvalues --    3.08863   3.09937   3.10785   3.11063   3.13510
 Alpha virt. eigenvalues --    3.15864   3.20642   3.20867   3.22504   3.23013
 Alpha virt. eigenvalues --    3.23420   3.25296   3.26800   3.27433   3.27559
 Alpha virt. eigenvalues --    3.28429   3.28731   3.29160   3.30818   3.32214
 Alpha virt. eigenvalues --    3.34050   3.35085   3.36869   3.39254   3.39313
 Alpha virt. eigenvalues --    3.42239   3.45151   3.51233   3.52066   3.53237
 Alpha virt. eigenvalues --    3.53547   3.54408   3.55138   3.79682   3.84000
 Alpha virt. eigenvalues --    3.85649   3.86954   3.87557   3.89978   4.28188
 Alpha virt. eigenvalues --    4.29761   4.33590   4.33672   4.34318   4.35874
 Alpha virt. eigenvalues --    4.36545   4.37986   4.41992   4.42082   4.43553
 Alpha virt. eigenvalues --    4.48722   4.49485   4.50472   4.52756   4.52807
 Alpha virt. eigenvalues --    4.53335   4.54393   4.55201   4.55497   4.55727
 Alpha virt. eigenvalues --    4.59239   4.59530   4.59810   4.62205   4.65521
 Alpha virt. eigenvalues --    4.78243   4.81306   4.87326   4.91070   4.92310
 Alpha virt. eigenvalues --    4.97017   5.23506
          Condensed to atoms (all electrons):
 Mulliken charges:
               1
     1  C   -0.183005
     2  C    0.243458
     3  C    0.231526
     4  C   -0.094425
     5  C   -0.215561
     6  C   -0.123536
     7  C   -0.094425
     8  C    0.231526
     9  C    0.243458
    10  H    0.138442
    11  C   -0.183005
    12  C   -0.123536
    13  C   -0.215561
    14  H    0.131458
    15  H    0.138442
    16  H    0.138721
    17  H    0.132261
    18  H    0.131458
    19  H    0.132261
    20  H    0.138721
    21  O   -0.421047
    22  N    0.258530
    23  C   -1.390533
    24  C    0.139115
    25  C    0.139115
    26  C   -0.124653
    27  H    0.130158
    28  C   -0.124653
    29  H    0.130158
    30  C   -0.131396
    31  H    0.131828
    32  H    0.131828
    33  B    0.151111
    34  C    0.596712
    35  C    0.596712
    36  C   -0.257232
    37  C    0.007111
    38  C    0.007111
    39  C   -0.257232
    40  C   -0.304225
    41  H    0.135556
    42  C   -0.199399
    43  O   -0.295131
    44  C   -0.199399
    45  H    0.135556
    46  C   -0.304225
    47  C   -0.158845
    48  H    0.135266
    49  H    0.141801
    50  C   -0.158845
    51  H    0.141801
    52  H    0.135266
    53  H    0.141700
    54  H    0.141700
 Sum of Mulliken charges =   0.00000
 Mulliken charges with hydrogens summed into heavy atoms:
               1
     1  C   -0.051547
     2  C    0.381901
     3  C    0.231526
     4  C   -0.094425
     5  C   -0.076840
     6  C    0.008725
     7  C   -0.094425
     8  C    0.231526
     9  C    0.381901
    11  C   -0.051547
    12  C    0.008725
    13  C   -0.076840
    21  O   -0.421047
    22  N    0.258530
    23  C   -1.390533
    24  C    0.269272
    25  C    0.269272
    26  C    0.007175
    28  C    0.007175
    30  C   -0.131396
    33  B    0.151111
    34  C    0.596712
    35  C    0.596712
    36  C   -0.121676
    37  C    0.007111
    38  C    0.007111
    39  C   -0.121676
    40  C   -0.168959
    42  C   -0.057598
    43  O   -0.295131
    44  C   -0.057598
    46  C   -0.168959
    47  C   -0.017145
    50  C   -0.017145
 Electronic spatial extent (au):  <R**2>=          19614.4170
 Charge=              0.0000 electrons
 Dipole moment (field-independent basis, Debye):
    X=              0.0000    Y=              0.0000    Z=             -3.8154  Tot=              3.8154
 Quadrupole moment (field-independent basis, Debye-Ang):
   XX=           -177.7743   YY=           -199.2534   ZZ=           -190.5952
   XY=              3.7066   XZ=              0.0000   YZ=              0.0000
 Traceless Quadrupole moment (field-independent basis, Debye-Ang):
   XX=             11.4333   YY=            -10.0458   ZZ=             -1.3875
   XY=              3.7066   XZ=              0.0000   YZ=              0.0000
 Octapole moment (field-independent basis, Debye-Ang**2):
  XXX=              0.0000  YYY=              0.0000  ZZZ=           -130.0659  XYY=              0.0000
  XXY=              0.0000  XXZ=            -43.0528  XZZ=              0.0000  YZZ=              0.0000
  YYZ=             -1.4827  XYZ=            -44.6265
 Hexadecapole moment (field-independent basis, Debye-Ang**3):
 XXXX=          -5317.7536 YYYY=          -1084.9503 ZZZZ=         -19658.1585 XXXY=             23.4514
 XXXZ=              0.0000 YYYX=             25.2775 YYYZ=              0.0000 ZZZX=              0.0000
 ZZZY=              0.0000 XXYY=          -1158.8880 XXZZ=          -3880.0013 YYZZ=          -3836.6704
 XXYZ=              0.0000 YYXZ=              0.0000 ZZXY=             57.1690
 N-N= 3.052527251822D+03 E-N=-9.317907736116D+03  KE= 1.372687480830D+03
 Symmetry A    KE= 8.111456351828D+02
 Symmetry B    KE= 5.615418456472D+02

 **********************************************************************

            Population analysis using the CI one-particle density.

 **********************************************************************

          Condensed to atoms (all electrons):
 Mulliken charges:
               1
     1  C   -0.139208
     2  C    0.282583
     3  C    0.297779
     4  C   -0.019591
     5  C   -0.204987
     6  C   -0.044384
     7  C   -0.019591
     8  C    0.297779
     9  C    0.282583
    10  H    0.138607
    11  C   -0.139208
    12  C   -0.044384
    13  C   -0.204987
    14  H    0.131624
    15  H    0.138607
    16  H    0.138686
    17  H    0.132589
    18  H    0.131624
    19  H    0.132589
    20  H    0.138686
    21  O   -0.318126
    22  N    0.495229
    23  C   -1.392531
    24  C    0.143533
    25  C    0.143533
    26  C   -0.153935
    27  H    0.129896
    28  C   -0.153935
    29  H    0.129896
    30  C   -0.221211
    31  H    0.132659
    32  H    0.132659
    33  B   -0.154528
    34  C    0.575089
    35  C    0.575089
    36  C   -0.324740
    37  C   -0.031689
    38  C   -0.031689
    39  C   -0.324740
    40  C   -0.307486
    41  H    0.135217
    42  C   -0.226092
    43  O   -0.319629
    44  C   -0.226092
    45  H    0.135217
    46  C   -0.307486
    47  C   -0.248877
    48  H    0.135258
    49  H    0.141674
    50  C   -0.248877
    51  H    0.141674
    52  H    0.135258
    53  H    0.141193
    54  H    0.141193
 Sum of Mulliken charges =   0.00000
 Mulliken charges with hydrogens summed into heavy atoms:
               1
     1  C   -0.007584
     2  C    0.421190
     3  C    0.297779
     4  C   -0.019591
     5  C   -0.066300
     6  C    0.088204
     7  C   -0.019591
     8  C    0.297779
     9  C    0.421190
    11  C   -0.007584
    12  C    0.088204
    13  C   -0.066300
    21  O   -0.318126
    22  N    0.495229
    23  C   -1.392531
    24  C    0.273430
    25  C    0.273430
    26  C   -0.021276
    28  C   -0.021276
    30  C   -0.221211
    33  B   -0.154528
    34  C    0.575089
    35  C    0.575089
    36  C   -0.189524
    37  C   -0.031689
    38  C   -0.031689
    39  C   -0.189524
    40  C   -0.172228
    42  C   -0.084418
    43  O   -0.319629
    44  C   -0.084418
    46  C   -0.172228
    47  C   -0.107684
    50  C   -0.107684
 Electronic spatial extent (au):  <R**2>=          19604.8732
 Charge=              0.0000 electrons
 Dipole moment (field-independent basis, Debye):
    X=              0.0000    Y=              0.0000    Z=             31.8376  Tot=             31.8376
 Quadrupole moment (field-independent basis, Debye-Ang):
   XX=           -178.1964   YY=           -200.0819   ZZ=           -176.5079
   XY=             -7.0809   XZ=              0.0000   YZ=              0.0000
 Traceless Quadrupole moment (field-independent basis, Debye-Ang):
   XX=              6.7324   YY=            -15.1532   ZZ=              8.4208
   XY=             -7.0809   XZ=              0.0000   YZ=              0.0000
 Octapole moment (field-independent basis, Debye-Ang**2):
  XXX=              0.0000  YYY=              0.0000  ZZZ=            641.0227  XYY=              0.0000
  XXY=              0.0000  XXZ=            139.8586  XZZ=              0.0000  YZZ=              0.0000
  YYZ=             37.5132  XYZ=            -47.2754
 Hexadecapole moment (field-independent basis, Debye-Ang**3):
 XXXX=          -5322.9842 YYYY=          -1088.7532 ZZZZ=         -19387.2324 XXXY=            -94.6932
 XXXZ=              0.0000 YYYX=             -9.8262 YYYZ=              0.0000 ZZZX=              0.0000
 ZZZY=              0.0000 XXYY=          -1156.9915 XXZZ=          -3932.7025 YYZZ=          -3837.6210
 XXYZ=              0.0000 YYXZ=              0.0000 ZZXY=           -192.9756
 N-N= 3.052527251822D+03 E-N=-9.315875290215D+03  KE= 1.372205920915D+03
 Symmetry A    KE= 8.111456438027D+02
 Symmetry B    KE= 5.610602771125D+02

 **********************************************************************

            Population analysis using the CI density.

 **********************************************************************

          Condensed to atoms (all electrons):
 Mulliken charges:
               1
     1  C   -0.179325
     2  C    0.317916
     3  C    0.253913
     4  C   -0.128292
     5  C   -0.164111
     6  C   -0.068129
     7  C   -0.128292
     8  C    0.253913
     9  C    0.317916
    10  H    0.185752
    11  C   -0.179325
    12  C   -0.068129
    13  C   -0.164111
    14  H    0.168087
    15  H    0.185752
    16  H    0.165867
    17  H    0.166638
    18  H    0.168087
    19  H    0.166638
    20  H    0.165867
    21  O   -0.338523
    22  N    0.314828
    23  C   -1.200885
    24  C    0.131606
    25  C    0.131606
    26  C   -0.139221
    27  H    0.116823
    28  C   -0.139221
    29  H    0.116823
    30  C   -0.375265
    31  H    0.134115
    32  H    0.134115
    33  B    0.032930
    34  C    0.616075
    35  C    0.616075
    36  C   -0.299101
    37  C   -0.006758
    38  C   -0.006758
    39  C   -0.299101
    40  C   -0.295208
    41  H    0.099127
    42  C   -0.241623
    43  O   -0.329262
    44  C   -0.241623
    45  H    0.099127
    46  C   -0.295208
    47  C   -0.219065
    48  H    0.105058
    49  H    0.116838
    50  C   -0.219065
    51  H    0.116838
    52  H    0.105058
    53  H    0.111107
    54  H    0.111107
 Sum of Mulliken charges =   0.00000
 Mulliken charges with hydrogens summed into heavy atoms:
               1
     1  C   -0.011238
     2  C    0.503668
     3  C    0.253913
     4  C   -0.128292
     5  C    0.001756
     6  C    0.098509
     7  C   -0.128292
     8  C    0.253913
     9  C    0.503668
    11  C   -0.011238
    12  C    0.098509
    13  C    0.001756
    21  O   -0.338523
    22  N    0.314828
    23  C   -1.200885
    24  C    0.248429
    25  C    0.248429
    26  C   -0.005106
    28  C   -0.005106
    30  C   -0.375265
    33  B    0.032930
    34  C    0.616075
    35  C    0.616075
    36  C   -0.199974
    37  C   -0.006758
    38  C   -0.006758
    39  C   -0.199974
    40  C   -0.190150
    42  C   -0.124786
    43  O   -0.329262
    44  C   -0.124786
    46  C   -0.190150
    47  C   -0.107958
    50  C   -0.107958
 Electronic spatial extent (au):  <R**2>=          19607.6889
 Charge=              0.0000 electrons
 Dipole moment (field-independent basis, Debye):
    X=              0.0000    Y=              0.0000    Z=             27.7087  Tot=             27.7087
 Quadrupole moment (field-independent basis, Debye-Ang):
   XX=           -175.6997   YY=           -199.4269   ZZ=           -183.4468
   XY=            -13.2765   XZ=              0.0000   YZ=              0.0000
 Traceless Quadrupole moment (field-independent basis, Debye-Ang):
   XX=             10.4914   YY=            -13.2358   ZZ=              2.7443
   XY=            -13.2765   XZ=              0.0000   YZ=              0.0000
 Octapole moment (field-independent basis, Debye-Ang**2):
  XXX=              0.0000  YYY=              0.0000  ZZZ=            732.9439  XYY=              0.0000
  XXY=              0.0000  XXZ=            235.8285  XZZ=              0.0000  YZZ=              0.0000
  YYZ=             59.7601  XYZ=            -51.6420
 Hexadecapole moment (field-independent basis, Debye-Ang**3):
 XXXX=          -5290.9737 YYYY=          -1083.8142 ZZZZ=         -19541.2747 XXXY=           -232.2157
 XXXZ=              0.0000 YYYX=            -56.4723 YYYZ=              0.0000 ZZZX=              0.0000
 ZZZY=              0.0000 XXYY=          -1146.5026 XXZZ=          -3896.3822 YYZZ=          -3823.2748
 XXYZ=              0.0000 YYXZ=              0.0000 ZZXY=           -328.1250
 N-N= 3.052527251822D+03 E-N=-9.317522376781D+03  KE= 1.372696953949D+03
 Symmetry A    KE= 8.113702223773D+02
 Symmetry B    KE= 5.613267315721D+02

 Test job not archived.
 1\1\GINC-NODE7\SP\RB3LYP TD-FC\6-31+G(d,p)\C30H20B1N1O2\TUCY\08-Sep-20
 16\0\\# TD(Nstate=25,Root=1) B3LYP/6-31+G(d,p) SCF=(Maxcyc=500) Int=Ul
 trafine geom=check guess=read EmpiricalDispersion=GD3 iop(9/40=2) SCRF
 =(Solvent=Toluene) Density=(all)\\****TD b3lyp, GD3\\0,1\C,0,-3.449593
 708,1.1694966229,3.7795241474\C,0,-2.3315053747,0.7900107875,3.0338313
 721\C,0,-1.1499081298,0.39131975,3.6649108823\C,0,-1.123761334,0.38287
 63014,5.0706076952\C,0,-2.2321221298,0.7588970801,5.8104700589\C,0,-3.
 4064536917,1.1564299855,5.1672379802\C,0,1.123761334,-0.3828763014,5.0
 706076952\C,0,1.1499081298,-0.39131975,3.6649108823\C,0,2.3315053747,-
 0.7900107875,3.0338313721\H,0,2.3741432395,-0.8035687161,1.9530221254\
 C,0,3.449593708,-1.1694966229,3.7795241474\C,0,3.4064536917,-1.1564299
 855,5.1672379802\C,0,2.2321221298,-0.7588970801,5.8104700589\H,0,-4.35
 12257736,1.4741729622,3.2612846493\H,0,-2.3741432395,0.8035687161,1.95
 30221254\H,0,-2.1569302881,0.7337099156,6.8909656692\H,0,-4.2695811515
 ,1.4493961734,5.7523629743\H,0,4.3512257736,-1.4741729622,3.2612846493
 \H,0,4.2695811515,-1.4493961734,5.7523629743\H,0,2.1569302881,-0.73370
 99156,6.8909656692\O,0,0.,0.,5.7773550472\N,0,0.,0.,2.9549644354\C,0,0
 .,0.,1.5206428626\C,0,-0.3434580028,-1.1557397017,0.8196243159\C,0,0.3
 434580028,1.1557397017,0.8196243159\C,0,-0.3518875526,-1.1475623758,-0
 .5729159865\H,0,-0.6070010388,-2.0521385178,1.369336172\C,0,0.35188755
 26,1.1475623758,-0.5729159865\H,0,0.6070010388,2.0521385178,1.36933617
 2\C,0,0.,0.,-1.3070313317\H,0,-0.6264349079,-2.0569248926,-1.097043271
 8\H,0,0.6264349079,2.0569248926,-1.0970432718\B,0,0.,0.,-2.8801383314\
 C,0,-1.2397201012,-0.3784339473,-3.7124001728\C,0,1.2397201012,0.37843
 39473,-3.7124001728\C,0,-2.5018775035,-0.7308811236,-3.1761570182\C,0,
 -1.1446190355,-0.3480159688,-5.1174110205\C,0,1.1446190355,0.348015968
 8,-5.1174110205\C,0,2.5018775035,0.7308811236,-3.1761570182\C,0,-3.579
 1765219,-1.0484310848,-3.9825340006\H,0,-2.6194851922,-0.7431228424,-2
 .098922877\C,0,-2.2238998278,-0.666939048,-5.9501682168\O,0,0.,0.,-5.7
 753643465\C,0,2.2238998278,0.666939048,-5.9501682168\H,0,2.6194851922,
 0.7431228424,-2.098922877\C,0,3.5791765219,1.0484310848,-3.9825340006\
 C,0,-3.4335292545,-1.0185192469,-5.3781483255\H,0,-4.5335180541,-1.314
 3930963,-3.5434492341\H,0,-2.0900461089,-0.6287822572,-7.0241952424\C,
 0,3.4335292545,1.0185192469,-5.3781483255\H,0,2.0900461089,0.628782257
 2,-7.0241952424\H,0,4.5335180541,1.3143930963,-3.5434492341\H,0,-4.274
 2322494,-1.2659291021,-6.0164896647\H,0,4.2742322494,1.2659291021,-6.0
 164896647\\Version=EM64L-G09RevD.01\State=1-A\HF=-1385.4614086\RMSD=5.
 294e-09\Dipole=0.,0.,10.9014424\Quadrupole=7.8047901,-9.8451362,2.0403
 461,-9.8666042,0.,0.\PG=C02 [C2(O1B1C1C1N1O1),X(C28H20)]\\@


 SUCCESS-- IF YOU HAVE TRIED TO DO SOMETHING AND FAILED
           YOU ARE BETTER OFF THAN IF YOU HAD TRIED TO DO
           NOTHING AND SUCCEEDED.

                   -- FROM THE BACK OF A SUGAR PACKET
 Job cpu time:       0 days 20 hours 49 minutes 34.7 seconds.
 File lengths (MBytes):  RWF=   3433 Int=      0 D2E=      0 Chk=    486 Scr=      1
 Normal termination of Gaussian 09 at Thu Sep  8 06:22:06 2016.
